<?xml version="1.0" encoding="ISO-8859-1"?>
<modeling>
 <generator>
  <i name="program" type="string">vasp </i>
  <i name="version" type="string">5.3.5  </i>
  <i name="subversion" type="string">31Mar14 (build Apr 09 2015 15:23:00) complex                          parallel </i>
  <i name="platform" type="string">LinuxIFC </i>
  <i name="date" type="string">2015 04 27 </i>
  <i name="time" type="string">22:47:36 </i>
 </generator>
 <incar>
  <i type="string" name="SYSTEM"> B-Pd</i>
  <i type="int" name="ISTART">     1</i>
  <i type="string" name="PREC">accurate</i>
  <i type="int" name="IALGO">    38</i>
  <i type="int" name="ICHARG">    11</i>
  <i type="int" name="NELM">   100</i>
  <i type="int" name="NELMIN">     5</i>
  <i type="int" name="IBRION">    -1</i>
  <i name="EDIFF">      0.00000100</i>
  <i name="EDIFFG">     -0.01000000</i>
  <i type="int" name="NSW">     1</i>
  <i type="int" name="ISIF">     3</i>
  <i type="int" name="ISYM">     0</i>
  <i type="int" name="NBANDS">   100</i>
  <i name="POTIM">      0.30000000</i>
  <i type="logical" name="LREAL"> T  </i>
  <i type="int" name="ISMEAR">     0</i>
  <i name="SIGMA">      0.10000000</i>
  <i type="int" name="NWRITE">     2</i>
  <i type="logical" name="LWAVE"> T  </i>
  <i type="logical" name="LCHARG"> T  </i>
  <i type="int" name="NELM">   100</i>
  <i type="string" name="GGA"> PE</i>
 </incar>
 <kpoints>
  <generation param="listgenerated">
   <i name="divisions" type="int">      20 </i>
   <v>       0.00000000       0.00000000       0.00000000 </v>
   <v>       0.00000000       0.50000000       0.00000000 </v>
   <v>       0.00000000       0.50000000       0.50000000 </v>
   <v>       0.00000000       0.00000000       0.50000000 </v>
   <v>       0.50000000       0.00000000       0.00000000 </v>
   <v>       0.00000000       0.00000000       0.00000000 </v>
  </generation>
  <varray name="kpointlist" >
   <v>       0.00000000       0.00000000       0.00000000 </v>
   <v>       0.00000000       0.02631579       0.00000000 </v>
   <v>       0.00000000       0.05263158       0.00000000 </v>
   <v>       0.00000000       0.07894737       0.00000000 </v>
   <v>       0.00000000       0.10526316       0.00000000 </v>
   <v>       0.00000000       0.13157895       0.00000000 </v>
   <v>       0.00000000       0.15789474       0.00000000 </v>
   <v>       0.00000000       0.18421053       0.00000000 </v>
   <v>       0.00000000       0.21052632       0.00000000 </v>
   <v>       0.00000000       0.23684211       0.00000000 </v>
   <v>       0.00000000       0.26315789       0.00000000 </v>
   <v>       0.00000000       0.28947368       0.00000000 </v>
   <v>       0.00000000       0.31578947       0.00000000 </v>
   <v>       0.00000000       0.34210526       0.00000000 </v>
   <v>       0.00000000       0.36842105       0.00000000 </v>
   <v>       0.00000000       0.39473684       0.00000000 </v>
   <v>       0.00000000       0.42105263       0.00000000 </v>
   <v>       0.00000000       0.44736842       0.00000000 </v>
   <v>       0.00000000       0.47368421       0.00000000 </v>
   <v>       0.00000000       0.50000000       0.00000000 </v>
   <v>       0.00000000       0.50000000       0.00000000 </v>
   <v>       0.00000000       0.50000000       0.02631579 </v>
   <v>       0.00000000       0.50000000       0.05263158 </v>
   <v>       0.00000000       0.50000000       0.07894737 </v>
   <v>       0.00000000       0.50000000       0.10526316 </v>
   <v>       0.00000000       0.50000000       0.13157895 </v>
   <v>       0.00000000       0.50000000       0.15789474 </v>
   <v>       0.00000000       0.50000000       0.18421053 </v>
   <v>       0.00000000       0.50000000       0.21052632 </v>
   <v>       0.00000000       0.50000000       0.23684211 </v>
   <v>       0.00000000       0.50000000       0.26315789 </v>
   <v>       0.00000000       0.50000000       0.28947368 </v>
   <v>       0.00000000       0.50000000       0.31578947 </v>
   <v>       0.00000000       0.50000000       0.34210526 </v>
   <v>       0.00000000       0.50000000       0.36842105 </v>
   <v>       0.00000000       0.50000000       0.39473684 </v>
   <v>       0.00000000       0.50000000       0.42105263 </v>
   <v>       0.00000000       0.50000000       0.44736842 </v>
   <v>       0.00000000       0.50000000       0.47368421 </v>
   <v>       0.00000000       0.50000000       0.50000000 </v>
   <v>       0.00000000       0.50000000       0.50000000 </v>
   <v>       0.00000000       0.47368421       0.50000000 </v>
   <v>       0.00000000       0.44736842       0.50000000 </v>
   <v>       0.00000000       0.42105263       0.50000000 </v>
   <v>       0.00000000       0.39473684       0.50000000 </v>
   <v>       0.00000000       0.36842105       0.50000000 </v>
   <v>       0.00000000       0.34210526       0.50000000 </v>
   <v>       0.00000000       0.31578947       0.50000000 </v>
   <v>       0.00000000       0.28947368       0.50000000 </v>
   <v>       0.00000000       0.26315789       0.50000000 </v>
   <v>       0.00000000       0.23684211       0.50000000 </v>
   <v>       0.00000000       0.21052632       0.50000000 </v>
   <v>       0.00000000       0.18421053       0.50000000 </v>
   <v>       0.00000000       0.15789474       0.50000000 </v>
   <v>       0.00000000       0.13157895       0.50000000 </v>
   <v>       0.00000000       0.10526316       0.50000000 </v>
   <v>       0.00000000       0.07894737       0.50000000 </v>
   <v>       0.00000000       0.05263158       0.50000000 </v>
   <v>       0.00000000       0.02631579       0.50000000 </v>
   <v>       0.00000000       0.00000000       0.50000000 </v>
   <v>       0.00000000       0.00000000       0.50000000 </v>
   <v>       0.02631579       0.00000000       0.47368421 </v>
   <v>       0.05263158       0.00000000       0.44736842 </v>
   <v>       0.07894737       0.00000000       0.42105263 </v>
   <v>       0.10526316       0.00000000       0.39473684 </v>
   <v>       0.13157895       0.00000000       0.36842105 </v>
   <v>       0.15789474       0.00000000       0.34210526 </v>
   <v>       0.18421053       0.00000000       0.31578947 </v>
   <v>       0.21052632       0.00000000       0.28947368 </v>
   <v>       0.23684211       0.00000000       0.26315789 </v>
   <v>       0.26315789       0.00000000       0.23684211 </v>
   <v>       0.28947368       0.00000000       0.21052632 </v>
   <v>       0.31578947       0.00000000       0.18421053 </v>
   <v>       0.34210526       0.00000000       0.15789474 </v>
   <v>       0.36842105       0.00000000       0.13157895 </v>
   <v>       0.39473684       0.00000000       0.10526316 </v>
   <v>       0.42105263       0.00000000       0.07894737 </v>
   <v>       0.44736842       0.00000000       0.05263158 </v>
   <v>       0.47368421       0.00000000       0.02631579 </v>
   <v>       0.50000000       0.00000000       0.00000000 </v>
   <v>       0.50000000       0.00000000       0.00000000 </v>
   <v>       0.47368421       0.00000000       0.00000000 </v>
   <v>       0.44736842       0.00000000       0.00000000 </v>
   <v>       0.42105263       0.00000000       0.00000000 </v>
   <v>       0.39473684       0.00000000       0.00000000 </v>
   <v>       0.36842105       0.00000000       0.00000000 </v>
   <v>       0.34210526       0.00000000       0.00000000 </v>
   <v>       0.31578947       0.00000000       0.00000000 </v>
   <v>       0.28947368       0.00000000       0.00000000 </v>
   <v>       0.26315789       0.00000000       0.00000000 </v>
   <v>       0.23684211       0.00000000       0.00000000 </v>
   <v>       0.21052632       0.00000000       0.00000000 </v>
   <v>       0.18421053       0.00000000       0.00000000 </v>
   <v>       0.15789474       0.00000000       0.00000000 </v>
   <v>       0.13157895       0.00000000       0.00000000 </v>
   <v>       0.10526316       0.00000000       0.00000000 </v>
   <v>       0.07894737       0.00000000       0.00000000 </v>
   <v>       0.05263158       0.00000000       0.00000000 </v>
   <v>       0.02631579       0.00000000       0.00000000 </v>
   <v>       0.00000000       0.00000000       0.00000000 </v>
  </varray>
  <varray name="weights" >
   <v>       0.01000000 </v>
   <v>       0.01000000 </v>
   <v>       0.01000000 </v>
   <v>       0.01000000 </v>
   <v>       0.01000000 </v>
   <v>       0.01000000 </v>
   <v>       0.01000000 </v>
   <v>       0.01000000 </v>
   <v>       0.01000000 </v>
   <v>       0.01000000 </v>
   <v>       0.01000000 </v>
   <v>       0.01000000 </v>
   <v>       0.01000000 </v>
   <v>       0.01000000 </v>
   <v>       0.01000000 </v>
   <v>       0.01000000 </v>
   <v>       0.01000000 </v>
   <v>       0.01000000 </v>
   <v>       0.01000000 </v>
   <v>       0.01000000 </v>
   <v>       0.01000000 </v>
   <v>       0.01000000 </v>
   <v>       0.01000000 </v>
   <v>       0.01000000 </v>
   <v>       0.01000000 </v>
   <v>       0.01000000 </v>
   <v>       0.01000000 </v>
   <v>       0.01000000 </v>
   <v>       0.01000000 </v>
   <v>       0.01000000 </v>
   <v>       0.01000000 </v>
   <v>       0.01000000 </v>
   <v>       0.01000000 </v>
   <v>       0.01000000 </v>
   <v>       0.01000000 </v>
   <v>       0.01000000 </v>
   <v>       0.01000000 </v>
   <v>       0.01000000 </v>
   <v>       0.01000000 </v>
   <v>       0.01000000 </v>
   <v>       0.01000000 </v>
   <v>       0.01000000 </v>
   <v>       0.01000000 </v>
   <v>       0.01000000 </v>
   <v>       0.01000000 </v>
   <v>       0.01000000 </v>
   <v>       0.01000000 </v>
   <v>       0.01000000 </v>
   <v>       0.01000000 </v>
   <v>       0.01000000 </v>
   <v>       0.01000000 </v>
   <v>       0.01000000 </v>
   <v>       0.01000000 </v>
   <v>       0.01000000 </v>
   <v>       0.01000000 </v>
   <v>       0.01000000 </v>
   <v>       0.01000000 </v>
   <v>       0.01000000 </v>
   <v>       0.01000000 </v>
   <v>       0.01000000 </v>
   <v>       0.01000000 </v>
   <v>       0.01000000 </v>
   <v>       0.01000000 </v>
   <v>       0.01000000 </v>
   <v>       0.01000000 </v>
   <v>       0.01000000 </v>
   <v>       0.01000000 </v>
   <v>       0.01000000 </v>
   <v>       0.01000000 </v>
   <v>       0.01000000 </v>
   <v>       0.01000000 </v>
   <v>       0.01000000 </v>
   <v>       0.01000000 </v>
   <v>       0.01000000 </v>
   <v>       0.01000000 </v>
   <v>       0.01000000 </v>
   <v>       0.01000000 </v>
   <v>       0.01000000 </v>
   <v>       0.01000000 </v>
   <v>       0.01000000 </v>
   <v>       0.01000000 </v>
   <v>       0.01000000 </v>
   <v>       0.01000000 </v>
   <v>       0.01000000 </v>
   <v>       0.01000000 </v>
   <v>       0.01000000 </v>
   <v>       0.01000000 </v>
   <v>       0.01000000 </v>
   <v>       0.01000000 </v>
   <v>       0.01000000 </v>
   <v>       0.01000000 </v>
   <v>       0.01000000 </v>
   <v>       0.01000000 </v>
   <v>       0.01000000 </v>
   <v>       0.01000000 </v>
   <v>       0.01000000 </v>
   <v>       0.01000000 </v>
   <v>       0.01000000 </v>
   <v>       0.01000000 </v>
   <v>       0.01000000 </v>
  </varray>
 </kpoints>
 <parameters>
  <separator name="general" >
   <i type="string" name="SYSTEM">B-Pd</i>
   <i type="logical" name="LCOMPAT"> F  </i>
  </separator>
  <separator name="electronic" >
   <i type="string" name="PREC">accura</i>
   <i name="ENMAX">    250.92500000</i>
   <i name="ENAUG">    416.23000000</i>
   <i name="EDIFF">      0.00000100</i>
   <i type="int" name="IALGO">    38</i>
   <i type="int" name="IWAVPR">    10</i>
   <i type="int" name="NBANDS">   108</i>
   <i name="NELECT">     40.00000000</i>
   <i type="int" name="TURBO">     0</i>
   <i type="int" name="IRESTART">     0</i>
   <i type="int" name="NREBOOT">     0</i>
   <i type="int" name="NMIN">     0</i>
   <i name="EREF">      0.00000000</i>
   <separator name="electronic smearing" >
    <i type="int" name="ISMEAR">     0</i>
    <i name="SIGMA">      0.10000000</i>
    <i name="KSPACING">      0.50000000</i>
    <i type="logical" name="KGAMMA"> T  </i>
   </separator>
   <separator name="electronic projectors" >
    <i type="logical" name="LREAL"> T  </i>
    <v name="ROPT">      0.00000000</v>
    <i type="int" name="LMAXPAW">  -100</i>
    <i type="int" name="LMAXMIX">     2</i>
    <i type="logical" name="NLSPLINE"> F  </i>
   </separator>
   <separator name="electronic startup" >
    <i type="int" name="ISTART">     1</i>
    <i type="int" name="ICHARG">    11</i>
    <i type="int" name="INIWAV">     1</i>
   </separator>
   <separator name="electronic spin" >
    <i type="int" name="ISPIN">     1</i>
    <i type="logical" name="LNONCOLLINEAR"> F  </i>
    <v name="MAGMOM">      1.00000000      1.00000000      1.00000000      1.00000000</v>
    <i name="NUPDOWN">     -1.00000000</i>
    <i type="logical" name="LSORBIT"> F  </i>
    <v name="SAXIS">      0.00000000      0.00000000      1.00000000</v>
    <i type="logical" name="LSPIRAL"> F  </i>
    <v name="QSPIRAL">      0.00000000      0.00000000      0.00000000</v>
    <i type="logical" name="LZEROZ"> F  </i>
   </separator>
   <separator name="electronic exchange-correlation" >
    <i type="logical" name="LASPH"> F  </i>
    <i type="logical" name="LMETAGGA"> F  </i>
   </separator>
   <separator name="electronic convergence" >
    <i type="int" name="NELM">   100</i>
    <i type="int" name="NELMDL">     0</i>
    <i type="int" name="NELMIN">     5</i>
    <i name="ENINI">    250.92500000</i>
    <separator name="electronic convergence detail" >
     <i type="logical" name="LDIAG"> T  </i>
     <i type="logical" name="LSUBROT"> F  </i>
     <i name="WEIMIN">      0.00000000</i>
     <i name="EBREAK">      0.00000000</i>
     <i name="DEPER">      0.30000000</i>
     <i type="int" name="NRMM">     4</i>
     <i name="TIME">      0.40000000</i>
    </separator>
   </separator>
   <separator name="electronic mixer" >
    <i name="AMIX">      0.40000000</i>
    <i name="BMIX">      1.00000000</i>
    <i name="AMIN">      0.10000000</i>
    <i name="AMIX_MAG">      1.60000000</i>
    <i name="BMIX_MAG">      1.00000000</i>
    <separator name="electronic mixer details" >
     <i type="int" name="IMIX">     4</i>
     <i type="int" name="MAXMIX">   -45</i>
     <i name="WC">    100.00000000</i>
     <i type="int" name="INIMIX">     1</i>
     <i type="int" name="MIXPRE">     1</i>
     <i type="int" name="MREMOVE">     5</i>
    </separator>
   </separator>
   <separator name="electronic dipolcorrection" >
    <i type="logical" name="LDIPOL"> F  </i>
    <i type="logical" name="LMONO"> F  </i>
    <i type="int" name="IDIPOL">     0</i>
    <i name="EPSILON">      1.00000000</i>
    <v name="DIPOL">   -100.00000000   -100.00000000   -100.00000000</v>
    <i name="EFIELD">      0.00000000</i>
   </separator>
  </separator>
  <separator name="grids" >
   <i type="int" name="NGX">    20</i>
   <i type="int" name="NGY">    20</i>
   <i type="int" name="NGZ">    20</i>
   <i type="int" name="NGXF">    40</i>
   <i type="int" name="NGYF">    40</i>
   <i type="int" name="NGZF">    40</i>
   <i type="logical" name="ADDGRID"> F  </i>
  </separator>
  <separator name="ionic" >
   <i type="int" name="NSW">     1</i>
   <i type="int" name="IBRION">    -1</i>
   <i type="int" name="ISIF">     3</i>
   <i name="PSTRESS">      0.00000000</i>
   <i name="EDIFFG">     -0.01000000</i>
   <i type="int" name="NFREE">     0</i>
   <i name="POTIM">      0.30000000</i>
   <i name="SMASS">     -3.00000000</i>
   <i name="SCALEE">      1.00000000</i>
  </separator>
  <separator name="ionic md" >
   <i name="TEBEG">      0.00010000</i>
   <i name="TEEND">      0.00010000</i>
   <i type="int" name="NBLOCK">     1</i>
   <i type="int" name="KBLOCK">     1</i>
   <i type="int" name="NPACO">   256</i>
   <i name="APACO">     16.00000000</i>
  </separator>
  <separator name="symmetry" >
   <i type="int" name="ISYM">     0</i>
   <i name="SYMPREC">      0.00001000</i>
  </separator>
  <separator name="dos" >
   <i type="logical" name="LORBIT"> F  </i>
   <v name="RWIGS">     -1.00000000</v>
   <i type="int" name="NEDOS">   301</i>
   <i name="EMIN">     10.00000000</i>
   <i name="EMAX">    -10.00000000</i>
   <i name="EFERMI">      0.00000000</i>
  </separator>
  <separator name="writing" >
   <i type="int" name="NWRITE">     2</i>
   <i type="logical" name="LWAVE"> T  </i>
   <i type="logical" name="LCHARG"> T  </i>
   <i type="logical" name="LPARD"> F  </i>
   <i type="logical" name="LVTOT"> F  </i>
   <i type="logical" name="LVHAR"> F  </i>
   <i type="logical" name="LELF"> F  </i>
   <i type="logical" name="LOPTICS"> F  </i>
   <v name="STM">      0.00000000      0.00000000      0.00000000      0.00000000      0.00000000      0.00000000      0.00000000</v>
  </separator>
  <separator name="performance" >
   <i type="int" name="NPAR">    12</i>
   <i type="int" name="NSIM">     4</i>
   <i type="int" name="NBLK">    -1</i>
   <i type="logical" name="LPLANE"> T  </i>
   <i type="logical" name="LSCALAPACK"> T  </i>
   <i type="logical" name="LSCAAWARE"> T  </i>
   <i type="logical" name="LSCALU"> F  </i>
   <i type="logical" name="LASYNC"> F  </i>
   <i type="logical" name="LORBITALREAL"> F  </i>
  </separator>
  <separator name="miscellaneous" >
   <i type="int" name="IDIOT">     3</i>
   <i type="logical" name="LMUSIC"> F  </i>
   <v name="POMASS">    106.42000000</v>
   <v name="DARWINR">      0.00000000</v>
   <v name="DARWINV">      1.00000000</v>
   <i type="logical" name="LCORR"> T  </i>
  </separator>
  <i type="logical" name="GGA_COMPAT"> T  </i>
  <i type="logical" name="LBERRY"> F  </i>
  <i type="int" name="ICORELEVEL">     0</i>
  <i type="logical" name="LDAU"> F  </i>
  <i type="int" name="I_CONSTRAINED_M">     0</i>
  <separator name="electronic exchange-correlation" >
   <i type="string" name="GGA">PE</i>
   <i type="int" name="VOSKOWN">     0</i>
   <i type="logical" name="LHFCALC"> F  </i>
   <i type="string" name="PRECFOCK"></i>
   <i type="logical" name="LSYMGRAD"> F  </i>
   <i type="logical" name="LHFONE"> F  </i>
   <i type="logical" name="LRHFCALC"> F  </i>
   <i type="logical" name="LTHOMAS"> F  </i>
   <i type="logical" name="LMODELHF"> F  </i>
   <i name="ENCUT4O">     -1.00000000</i>
   <i type="int" name="EXXOEP">     0</i>
   <i type="int" name="FOURORBIT">     0</i>
   <i name="AEXX">      0.00000000</i>
   <i name="HFALPHA">      0.00000000</i>
   <i name="MCALPHA">      0.00000000</i>
   <i name="ALDAX">      1.00000000</i>
   <i name="AGGAX">      1.00000000</i>
   <i name="ALDAC">      1.00000000</i>
   <i name="AGGAC">      1.00000000</i>
   <i type="int" name="NKREDX">     1</i>
   <i type="int" name="NKREDY">     1</i>
   <i type="int" name="NKREDZ">     1</i>
   <i type="logical" name="SHIFTRED"> F  </i>
   <i type="logical" name="ODDONLY"> F  </i>
   <i type="logical" name="EVENONLY"> F  </i>
   <i type="int" name="LMAXFOCK">     0</i>
   <i type="int" name="NMAXFOCKAE">     0</i>
   <i type="logical" name="LFOCKAEDFT"> F  </i>
   <i name="HFSCREEN">      0.00000000</i>
   <i name="HFSCREENC">      0.00000000</i>
   <i type="int" name="NBANDSGWLOW">     0</i>
  </separator>
  <separator name="vdW DFT" >
   <i type="logical" name="LUSE_VDW"> F  </i>
   <i name="Zab_VDW">     -0.84910000</i>
   <i name="PARAM1">      0.12340000</i>
   <i name="PARAM2">      1.00000000</i>
   <i name="PARAM3">      0.00000000</i>
  </separator>
  <separator name="model GW" >
   <i type="int" name="MODEL_GW">     0</i>
   <i name="MODEL_EPS0">      9.24723056</i>
   <i name="MODEL_ALPHA">      1.00000000</i>
  </separator>
  <separator name="linear response parameters" >
   <i type="logical" name="LEPSILON"> F  </i>
   <i type="logical" name="LRPA"> F  </i>
   <i type="logical" name="LNABLA"> F  </i>
   <i type="logical" name="LVEL"> F  </i>
   <i type="int" name="KINTER">     0</i>
   <i name="CSHIFT">      0.10000000</i>
   <i name="OMEGAMAX">     -1.00000000</i>
   <i name="DEG_THRESHOLD">      0.00200000</i>
  </separator>
  <separator name="orbital magnetization" >
   <i type="logical" name="NUCIND"> F  </i>
   <v name="MAGPOS">      0.00000000      0.00000000      0.00000000</v>
   <i type="logical" name="LNICSALL"> T  </i>
   <i type="logical" name="ORBITALMAG"> F  </i>
   <i type="logical" name="LMAGBLOCH"> F  </i>
   <i type="logical" name="LCHIMAG"> F  </i>
   <i type="logical" name="LGAUGE"> T  </i>
   <i type="int" name="MAGATOM">     0</i>
   <v name="MAGDIPOL">      0.00000000      0.00000000      0.00000000</v>
   <v name="AVECCONST">      0.00000000      0.00000000      0.00000000</v>
  </separator>
  <separator name="response functions" >
   <i type="logical" name="LADDER"> F  </i>
   <i type="logical" name="LFXC"> F  </i>
   <i type="logical" name="LHARTREE"> T  </i>
   <i type="int" name="IBSE">     0</i>
   <i type="logical" name="LTCTE"> F  </i>
   <i type="logical" name="LTETE"> F  </i>
   <i type="logical" name="LTRIPLET"> F  </i>
   <i type="logical" name="LFXCEPS"> F  </i>
   <i type="logical" name="LFXHEG"> F  </i>
   <i type="logical" name="L2ORDER"> F  </i>
   <i type="logical" name="LUSEW"> F  </i>
   <i name="ENCUTGW">     -2.00000000</i>
   <i name="ENCUTGWSOFT">     -2.00000000</i>
   <i name="ENCUTLF">     -1.00000000</i>
   <i type="int" name="LMAXMP2">    -1</i>
   <i name="SCISSOR">      0.00000000</i>
   <i type="int" name="NOMEGA">     0</i>
   <i type="int" name="NOMEGAR">     0</i>
   <i type="int" name="NBANDSGW">    -1</i>
   <i type="int" name="NBANDSO">    -1</i>
   <i type="int" name="NBANDSV">    -1</i>
   <i type="int" name="NELM">   100</i>
   <i type="int" name="DIM">     3</i>
   <i type="int" name="ANTIRES">     0</i>
   <i name="OMEGAMAX">    -30.00000000</i>
   <i name="OMEGAMIN">    -30.00000000</i>
   <i name="OMEGATL">   -200.00000000</i>
   <i type="int" name="OMEGAGRID">     0</i>
   <i name="CSHIFT">     -0.10000000</i>
   <i type="logical" name="SELFENERGY"> F  </i>
   <i type="logical" name="LSPECTRAL"> F  </i>
   <i type="logical" name="ODDONLYGW"> F  </i>
   <i type="logical" name="EVENONLYGW"> F  </i>
   <i type="int" name="NKREDLFX">     1</i>
   <i type="int" name="NKREDLFY">     1</i>
   <i type="int" name="NKREDLFZ">     1</i>
   <i type="int" name="MAXMEM">  1800</i>
   <i type="int" name="TELESCOPE">     0</i>
   <i type="int" name="TAUPAR">     1</i>
  </separator>
  <separator name="External order field" >
   <i name="OFIELD_KAPPA">      0.00000000</i>
   <v name="OFIELD_K">      0.00000000      0.00000000      0.00000000</v>
   <i name="OFIELD_Q6_NEAR">      0.00000000</i>
   <i name="OFIELD_Q6_FAR">      0.00000000</i>
   <i name="OFIELD_A">      0.00000000</i>
  </separator>
 </parameters>
 <atominfo>
  <atoms>       4 </atoms>
  <types>       1 </types>
  <array name="atoms" >
   <dimension dim="1">ion</dimension>
   <field type="string">element</field>
   <field type="int">atomtype</field>
   <set>
    <rc><c>Pd</c><c>   1</c></rc>
    <rc><c>Pd</c><c>   1</c></rc>
    <rc><c>Pd</c><c>   1</c></rc>
    <rc><c>Pd</c><c>   1</c></rc>
   </set>
  </array>
  <array name="atomtypes" >
   <dimension dim="1">type</dimension>
   <field type="int">atomspertype</field>
   <field type="string">element</field>
   <field>mass</field>
   <field>valence</field>
   <field type="string">pseudopotential</field>
   <set>
    <rc><c>   4</c><c>Pd</c><c>    106.42000000</c><c>     10.00000000</c><c> PAW_PBE Pd 05Jan2001                   </c></rc>
   </set>
  </array>
 </atominfo>
 <structure name="initialpos" >
  <crystal>
   <varray name="basis" >
    <v>       3.95039186       0.00000202       0.00000028 </v>
    <v>       0.00000202       3.95039204       0.00000185 </v>
    <v>       0.00000028       0.00000185       3.95039072 </v>
   </varray>
   <i name="volume">     61.64820370 </i>
   <varray name="rec_basis" >
    <v>       0.25313944      -0.00000013      -0.00000002 </v>
    <v>      -0.00000013       0.25313943      -0.00000012 </v>
    <v>      -0.00000002      -0.00000012       0.25313952 </v>
   </varray>
  </crystal>
  <varray name="positions" >
   <v>       1.00000000       0.00000001       0.99999999 </v>
   <v>       1.00000000       0.49999999       0.50000001 </v>
   <v>       0.50000000       1.00000000       0.50000000 </v>
   <v>       0.50000000       0.50000000       0.00000000 </v>
  </varray>
  <varray name="velocities" >
   <v>       0.00000000       0.00000000       0.00000000 </v>
   <v>       0.00000000       0.00000000       0.00000000 </v>
   <v>       0.00000000       0.00000000       0.00000000 </v>
   <v>       0.00000000       0.00000000       0.00000000 </v>
  </varray>
 </structure>
 <calculation>
  <scstep>
   <time name="dav">    5.41    5.42</time>
   <time name="total">    5.42    5.43</time>
   <energy>
    <i name="alphaZ">    353.35364685 </i>
    <i name="ewald">  -3342.50608491 </i>
    <i name="hartreedc">   -474.99263119 </i>
    <i name="XCdc">   -118.08554822 </i>
    <i name="pawpsdc">   2766.94607254 </i>
    <i name="pawaedc">  -2525.09664675 </i>
    <i name="eentropy">     -0.05428724 </i>
    <i name="bandstr">     87.63326312 </i>
    <i name="atom">   3238.75176558 </i>
    <i name="e_fr_energy">    -14.05045021 </i>
    <i name="e_wo_entrp">    -13.99616297 </i>
    <i name="e_0_energy">    -14.02330659 </i>
   </energy>
  </scstep>
  <scstep>
   <time name="dav">    4.33    4.33</time>
   <time name="total">    4.33    4.34</time>
   <energy>
    <i name="e_fr_energy">    -21.57526274 </i>
    <i name="e_wo_entrp">    -21.52001969 </i>
    <i name="e_0_energy">    -21.54764122 </i>
   </energy>
  </scstep>
  <scstep>
   <time name="dav">    4.38    4.39</time>
   <time name="total">    4.39    4.39</time>
   <energy>
    <i name="e_fr_energy">    -21.63157803 </i>
    <i name="e_wo_entrp">    -21.57658076 </i>
    <i name="e_0_energy">    -21.60407940 </i>
   </energy>
  </scstep>
  <scstep>
   <time name="dav">    4.25    4.25</time>
   <time name="total">    4.25    4.26</time>
   <energy>
    <i name="e_fr_energy">    -21.63159948 </i>
    <i name="e_wo_entrp">    -21.57660229 </i>
    <i name="e_0_energy">    -21.60410088 </i>
   </energy>
  </scstep>
  <scstep>
   <time name="dav">    3.95    3.96</time>
   <time name="total">    3.95    3.96</time>
   <energy>
    <i name="alphaZ">    353.35364685 </i>
    <i name="ewald">  -3342.50608491 </i>
    <i name="hartreedc">   -474.99263119 </i>
    <i name="XCdc">   -118.08554822 </i>
    <i name="pawpsdc">   2766.94607254 </i>
    <i name="pawaedc">  -2525.09664675 </i>
    <i name="eentropy">     -0.05499719 </i>
    <i name="bandstr">     80.05282379 </i>
    <i name="atom">   3238.75176558 </i>
    <i name="e_fr_energy">    -21.63159949 </i>
    <i name="e_wo_entrp">    -21.57660230 </i>
    <i name="e_0_energy">    -21.60410089 </i>
   </energy>
  </scstep>
  <structure>
   <crystal>
    <varray name="basis" >
     <v>       3.95039186       0.00000202       0.00000028 </v>
     <v>       0.00000202       3.95039204       0.00000185 </v>
     <v>       0.00000028       0.00000185       3.95039072 </v>
    </varray>
    <i name="volume">     61.64820370 </i>
    <varray name="rec_basis" >
     <v>       0.25313944      -0.00000013      -0.00000002 </v>
     <v>      -0.00000013       0.25313943      -0.00000012 </v>
     <v>      -0.00000002      -0.00000012       0.25313952 </v>
    </varray>
   </crystal>
   <varray name="positions" >
    <v>       1.00000000       0.00000001       0.99999999 </v>
    <v>       1.00000000       0.49999999       0.50000001 </v>
    <v>       0.50000000       1.00000000       0.50000000 </v>
    <v>       0.50000000       0.50000000       0.00000000 </v>
   </varray>
  </structure>
  <varray name="forces" >
   <v>      -0.00000013       0.00000082      -0.00000083 </v>
   <v>       0.00000021      -0.00000130       0.00000081 </v>
   <v>       0.00000023      -0.00000078      -0.00000087 </v>
   <v>      -0.00000031       0.00000127       0.00000089 </v>
  </varray>
  <varray name="stress" >
   <v>    -113.36681497      -0.00066869     -32.33174870 </v>
   <v>      -0.00066847      23.63393054      -0.00080432 </v>
   <v>     -32.33174863      -0.00080422      46.60279504 </v>
  </varray>
  <energy>
   <i name="e_fr_energy">    -21.63159949 </i>
   <i name="e_wo_entrp">    -21.60410089 </i>
   <i name="e_0_energy">     -0.05499719 </i>
  </energy>
  <time name="totalsc">   25.71   26.36</time>
  <eigenvalues>
   <array>
    <dimension dim="1">band</dimension>
    <dimension dim="2">kpoint</dimension>
    <dimension dim="3">spin</dimension>
    <field>eigene</field>
    <field>occ</field>
    <set>
     <set comment="spin 1">
      <set comment="kpoint 1">
       <r>   -2.3625    1.0000 </r>
       <r>   -0.5883    1.0000 </r>
       <r>   -0.5883    1.0000 </r>
       <r>   -0.5883    1.0000 </r>
       <r>   -0.2977    1.0000 </r>
       <r>   -0.2977    1.0000 </r>
       <r>   -0.2977    1.0000 </r>
       <r>    1.8242    1.0000 </r>
       <r>    1.8242    1.0000 </r>
       <r>    1.8242    1.0000 </r>
       <r>    3.3007    1.0000 </r>
       <r>    3.3007    1.0000 </r>
       <r>    4.3815    0.9999 </r>
       <r>    4.3815    0.9999 </r>
       <r>    4.3816    0.9999 </r>
       <r>    4.7317    0.1139 </r>
       <r>    4.7317    0.1139 </r>
       <r>    4.7317    0.1139 </r>
       <r>    4.7317    0.1139 </r>
       <r>    4.7317    0.1138 </r>
       <r>    4.7317    0.1138 </r>
       <r>    7.8321    0.0000 </r>
       <r>    7.8321    0.0000 </r>
       <r>    7.8321    0.0000 </r>
       <r>   14.7625    0.0000 </r>
       <r>   14.7625    0.0000 </r>
       <r>   14.7625    0.0000 </r>
       <r>   17.6754    0.0000 </r>
       <r>   17.6754    0.0000 </r>
       <r>   17.6754    0.0000 </r>
       <r>   17.6755    0.0000 </r>
       <r>   17.6755    0.0000 </r>
       <r>   17.6755    0.0000 </r>
       <r>   22.6077    0.0000 </r>
       <r>   25.4087    0.0000 </r>
       <r>   25.4087    0.0000 </r>
       <r>   25.4087    0.0000 </r>
       <r>   25.4182    0.0000 </r>
       <r>   25.4182    0.0000 </r>
       <r>   25.4182    0.0000 </r>
       <r>   26.6707    0.0000 </r>
       <r>   26.6707    0.0000 </r>
       <r>   26.6707    0.0000 </r>
       <r>   26.6760    0.0000 </r>
       <r>   26.6760    0.0000 </r>
       <r>   26.6760    0.0000 </r>
       <r>   26.6760    0.0000 </r>
       <r>   26.6760    0.0000 </r>
       <r>   26.6760    0.0000 </r>
       <r>   26.7805    0.0000 </r>
       <r>   26.7805    0.0000 </r>
       <r>   26.7805    0.0000 </r>
       <r>   27.0494    0.0000 </r>
       <r>   27.0494    0.0000 </r>
       <r>   27.0495    0.0000 </r>
       <r>   31.3629    0.0000 </r>
       <r>   34.0301    0.0000 </r>
       <r>   34.0301    0.0000 </r>
       <r>   34.0302    0.0000 </r>
       <r>   38.4579    0.0000 </r>
       <r>   38.4579    0.0000 </r>
       <r>   38.4579    0.0000 </r>
       <r>   39.8344    0.0000 </r>
       <r>   39.8344    0.0000 </r>
       <r>   39.8344    0.0000 </r>
       <r>   43.2619    0.0000 </r>
       <r>   43.2619    0.0000 </r>
       <r>   43.2619    0.0000 </r>
       <r>   43.8124    0.0000 </r>
       <r>   43.8124    0.0000 </r>
       <r>   45.6225    0.0000 </r>
       <r>   45.6225    0.0000 </r>
       <r>   45.6225    0.0000 </r>
       <r>   45.6226    0.0000 </r>
       <r>   45.6226    0.0000 </r>
       <r>   45.6226    0.0000 </r>
       <r>   45.7946    0.0000 </r>
       <r>   45.7946    0.0000 </r>
       <r>   45.7946    0.0000 </r>
       <r>   45.7947    0.0000 </r>
       <r>   45.7947    0.0000 </r>
       <r>   45.7947    0.0000 </r>
       <r>   48.9243    0.0000 </r>
       <r>   48.9243    0.0000 </r>
       <r>   48.9243    0.0000 </r>
       <r>   52.0193    0.0000 </r>
       <r>   53.0554    0.0000 </r>
       <r>   53.0554    0.0000 </r>
       <r>   53.0554    0.0000 </r>
       <r>   53.3165    0.0000 </r>
       <r>   53.3165    0.0000 </r>
       <r>   53.3166    0.0000 </r>
       <r>   54.4330    0.0000 </r>
       <r>   54.4330    0.0000 </r>
       <r>   54.4330    0.0000 </r>
       <r>   54.4331    0.0000 </r>
       <r>   54.4331    0.0000 </r>
       <r>   54.4331    0.0000 </r>
       <r>   56.1588    0.0000 </r>
       <r>   56.1588    0.0000 </r>
       <r>   56.1588    0.0000 </r>
       <r>   57.6428    0.0000 </r>
       <r>   57.6428    0.0000 </r>
       <r>   57.6428    0.0000 </r>
       <r>   61.5135    0.0000 </r>
       <r>   63.1762    0.0000 </r>
       <r>   63.1762    0.0000 </r>
       <r>   63.1764    0.0000 </r>
      </set>
      <set comment="kpoint 2">
       <r>   -2.3543    1.0000 </r>
       <r>   -0.5842    1.0000 </r>
       <r>   -0.5824    1.0000 </r>
       <r>   -0.5824    1.0000 </r>
       <r>   -0.2946    1.0000 </r>
       <r>   -0.2929    1.0000 </r>
       <r>   -0.2929    1.0000 </r>
       <r>    1.8199    1.0000 </r>
       <r>    1.8278    1.0000 </r>
       <r>    1.8278    1.0000 </r>
       <r>    3.2964    1.0000 </r>
       <r>    3.3025    1.0000 </r>
       <r>    4.3806    0.9999 </r>
       <r>    4.3818    0.9999 </r>
       <r>    4.3818    0.9999 </r>
       <r>    4.7089    0.1882 </r>
       <r>    4.7089    0.1882 </r>
       <r>    4.7303    0.1176 </r>
       <r>    4.7303    0.1176 </r>
       <r>    4.7385    0.0965 </r>
       <r>    4.7385    0.0965 </r>
       <r>    7.7879    0.0000 </r>
       <r>    7.8670    0.0000 </r>
       <r>    7.8670    0.0000 </r>
       <r>   14.7702    0.0000 </r>
       <r>   14.7702    0.0000 </r>
       <r>   14.8226    0.0000 </r>
       <r>   17.6554    0.0000 </r>
       <r>   17.6554    0.0000 </r>
       <r>   17.6565    0.0000 </r>
       <r>   17.6565    0.0000 </r>
       <r>   17.6918    0.0000 </r>
       <r>   17.6919    0.0000 </r>
       <r>   22.6145    0.0000 </r>
       <r>   25.4117    0.0000 </r>
       <r>   25.4194    0.0000 </r>
       <r>   25.4474    0.0000 </r>
       <r>   25.4474    0.0000 </r>
       <r>   25.4598    0.0000 </r>
       <r>   25.4598    0.0000 </r>
       <r>   26.7036    0.0000 </r>
       <r>   26.7036    0.0000 </r>
       <r>   26.7400    0.0000 </r>
       <r>   26.7400    0.0000 </r>
       <r>   26.7468    0.0000 </r>
       <r>   26.7468    0.0000 </r>
       <r>   26.7590    0.0000 </r>
       <r>   26.7658    0.0000 </r>
       <r>   26.7658    0.0000 </r>
       <r>   26.7790    0.0000 </r>
       <r>   26.7799    0.0000 </r>
       <r>   26.7799    0.0000 </r>
       <r>   27.0056    0.0000 </r>
       <r>   27.0388    0.0000 </r>
       <r>   27.0388    0.0000 </r>
       <r>   31.4313    0.0000 </r>
       <r>   34.0055    0.0000 </r>
       <r>   34.0055    0.0000 </r>
       <r>   34.0407    0.0000 </r>
       <r>   38.4297    0.0000 </r>
       <r>   38.4297    0.0000 </r>
       <r>   38.4685    0.0000 </r>
       <r>   39.6872    0.0000 </r>
       <r>   39.8830    0.0000 </r>
       <r>   39.8831    0.0000 </r>
       <r>   43.1236    0.0000 </r>
       <r>   43.1236    0.0000 </r>
       <r>   43.2687    0.0000 </r>
       <r>   43.8027    0.0000 </r>
       <r>   43.9353    0.0000 </r>
       <r>   44.9986    0.0000 </r>
       <r>   44.9986    0.0000 </r>
       <r>   45.5963    0.0000 </r>
       <r>   45.5963    0.0000 </r>
       <r>   45.6314    0.0000 </r>
       <r>   45.6314    0.0000 </r>
       <r>   45.7844    0.0000 </r>
       <r>   45.7844    0.0000 </r>
       <r>   46.0042    0.0000 </r>
       <r>   46.0042    0.0000 </r>
       <r>   46.4497    0.0000 </r>
       <r>   46.4497    0.0000 </r>
       <r>   48.7701    0.0000 </r>
       <r>   48.9698    0.0000 </r>
       <r>   48.9698    0.0000 </r>
       <r>   52.0469    0.0000 </r>
       <r>   52.9839    0.0000 </r>
       <r>   52.9839    0.0000 </r>
       <r>   53.1159    0.0000 </r>
       <r>   53.1242    0.0000 </r>
       <r>   53.1242    0.0000 </r>
       <r>   53.4932    0.0000 </r>
       <r>   54.4075    0.0000 </r>
       <r>   54.4076    0.0000 </r>
       <r>   54.4858    0.0000 </r>
       <r>   54.4858    0.0000 </r>
       <r>   54.6646    0.0000 </r>
       <r>   54.6646    0.0000 </r>
       <r>   56.1848    0.0000 </r>
       <r>   56.4271    0.0000 </r>
       <r>   56.4271    0.0000 </r>
       <r>   57.6340    0.0000 </r>
       <r>   57.7203    0.0000 </r>
       <r>   57.7203    0.0000 </r>
       <r>   61.5199    0.0000 </r>
       <r>   63.1668    0.0000 </r>
       <r>   63.1813    0.0000 </r>
       <r>   63.8133    0.0000 </r>
      </set>
      <set comment="kpoint 3">
       <r>   -2.3299    1.0000 </r>
       <r>   -0.5730    1.0000 </r>
       <r>   -0.5670    1.0000 </r>
       <r>   -0.5670    1.0000 </r>
       <r>   -0.2853    1.0000 </r>
       <r>   -0.2792    1.0000 </r>
       <r>   -0.2792    1.0000 </r>
       <r>    1.8070    1.0000 </r>
       <r>    1.8387    1.0000 </r>
       <r>    1.8387    1.0000 </r>
       <r>    3.2834    1.0000 </r>
       <r>    3.3077    1.0000 </r>
       <r>    4.3629    1.0000 </r>
       <r>    4.3629    1.0000 </r>
       <r>    4.3745    0.9999 </r>
       <r>    4.6246    0.6212 </r>
       <r>    4.6246    0.6212 </r>
       <r>    4.7075    0.1937 </r>
       <r>    4.7075    0.1937 </r>
       <r>    4.7382    0.0971 </r>
       <r>    4.7382    0.0971 </r>
       <r>    7.6588    0.0000 </r>
       <r>    7.9680    0.0000 </r>
       <r>    7.9680    0.0000 </r>
       <r>   14.7667    0.0000 </r>
       <r>   14.7667    0.0000 </r>
       <r>   14.9835    0.0000 </r>
       <r>   17.5960    0.0000 </r>
       <r>   17.5960    0.0000 </r>
       <r>   17.5997    0.0000 </r>
       <r>   17.5997    0.0000 </r>
       <r>   17.7405    0.0000 </r>
       <r>   17.7405    0.0000 </r>
       <r>   22.6347    0.0000 </r>
       <r>   25.4049    0.0000 </r>
       <r>   25.4094    0.0000 </r>
       <r>   25.5049    0.0000 </r>
       <r>   25.5049    0.0000 </r>
       <r>   25.5831    0.0000 </r>
       <r>   25.5831    0.0000 </r>
       <r>   26.7001    0.0000 </r>
       <r>   26.7001    0.0000 </r>
       <r>   26.7332    0.0000 </r>
       <r>   26.7332    0.0000 </r>
       <r>   26.7440    0.0000 </r>
       <r>   26.7440    0.0000 </r>
       <r>   26.7488    0.0000 </r>
       <r>   26.7593    0.0000 </r>
       <r>   26.7593    0.0000 </r>
       <r>   26.7642    0.0000 </r>
       <r>   26.7774    0.0000 </r>
       <r>   26.7774    0.0000 </r>
       <r>   26.8928    0.0000 </r>
       <r>   27.0069    0.0000 </r>
       <r>   27.0069    0.0000 </r>
       <r>   31.6274    0.0000 </r>
       <r>   33.9357    0.0000 </r>
       <r>   33.9357    0.0000 </r>
       <r>   34.0725    0.0000 </r>
       <r>   38.3359    0.0000 </r>
       <r>   38.3359    0.0000 </r>
       <r>   38.4938    0.0000 </r>
       <r>   39.2930    0.0000 </r>
       <r>   40.0252    0.0000 </r>
       <r>   40.0252    0.0000 </r>
       <r>   42.8062    0.0000 </r>
       <r>   42.8062    0.0000 </r>
       <r>   43.2863    0.0000 </r>
       <r>   43.7738    0.0000 </r>
       <r>   44.2562    0.0000 </r>
       <r>   44.3081    0.0000 </r>
       <r>   44.3081    0.0000 </r>
       <r>   45.4973    0.0000 </r>
       <r>   45.4973    0.0000 </r>
       <r>   45.6434    0.0000 </r>
       <r>   45.6434    0.0000 </r>
       <r>   45.7141    0.0000 </r>
       <r>   45.7141    0.0000 </r>
       <r>   46.4910    0.0000 </r>
       <r>   46.4910    0.0000 </r>
       <r>   47.1770    0.0000 </r>
       <r>   47.1770    0.0000 </r>
       <r>   48.3530    0.0000 </r>
       <r>   49.0819    0.0000 </r>
       <r>   49.0820    0.0000 </r>
       <r>   52.1300    0.0000 </r>
       <r>   52.6938    0.0000 </r>
       <r>   52.6938    0.0000 </r>
       <r>   52.7440    0.0000 </r>
       <r>   52.7440    0.0000 </r>
       <r>   53.1299    0.0000 </r>
       <r>   53.9617    0.0000 </r>
       <r>   54.3182    0.0000 </r>
       <r>   54.3182    0.0000 </r>
       <r>   54.5531    0.0000 </r>
       <r>   54.5531    0.0000 </r>
       <r>   55.1256    0.0000 </r>
       <r>   55.1256    0.0000 </r>
       <r>   56.1998    0.0000 </r>
       <r>   56.6921    0.0000 </r>
       <r>   56.6921    0.0000 </r>
       <r>   57.5600    0.0000 </r>
       <r>   57.7458    0.0000 </r>
       <r>   57.7458    0.0000 </r>
       <r>   61.5393    0.0000 </r>
       <r>   63.0990    0.0000 </r>
       <r>   63.1802    0.0000 </r>
       <r>   63.5597    0.0000 </r>
      </set>
      <set comment="kpoint 4">
       <r>   -2.2894    1.0000 </r>
       <r>   -0.5544    1.0000 </r>
       <r>   -0.5414    1.0000 </r>
       <r>   -0.5414    1.0000 </r>
       <r>   -0.2700    1.0000 </r>
       <r>   -0.2565    1.0000 </r>
       <r>   -0.2565    1.0000 </r>
       <r>    1.7857    1.0000 </r>
       <r>    1.8567    1.0000 </r>
       <r>    1.8567    1.0000 </r>
       <r>    3.2619    1.0000 </r>
       <r>    3.3163    1.0000 </r>
       <r>    4.3322    1.0000 </r>
       <r>    4.3322    1.0000 </r>
       <r>    4.3644    1.0000 </r>
       <r>    4.4950    0.9839 </r>
       <r>    4.4950    0.9839 </r>
       <r>    4.6707    0.3656 </r>
       <r>    4.6707    0.3655 </r>
       <r>    4.7380    0.0977 </r>
       <r>    4.7380    0.0977 </r>
       <r>    7.4563    0.0000 </r>
       <r>    8.1256    0.0000 </r>
       <r>    8.1256    0.0000 </r>
       <r>   14.7613    0.0000 </r>
       <r>   14.7613    0.0000 </r>
       <r>   15.2391    0.0000 </r>
       <r>   17.5021    0.0000 </r>
       <r>   17.5021    0.0000 </r>
       <r>   17.5067    0.0000 </r>
       <r>   17.5067    0.0000 </r>
       <r>   17.8210    0.0000 </r>
       <r>   17.8210    0.0000 </r>
       <r>   22.6682    0.0000 </r>
       <r>   25.3930    0.0000 </r>
       <r>   25.3944    0.0000 </r>
       <r>   25.5996    0.0000 </r>
       <r>   25.5996    0.0000 </r>
       <r>   25.7838    0.0000 </r>
       <r>   25.7838    0.0000 </r>
       <r>   26.6445    0.0000 </r>
       <r>   26.6976    0.0000 </r>
       <r>   26.6976    0.0000 </r>
       <r>   26.7281    0.0000 </r>
       <r>   26.7281    0.0000 </r>
       <r>   26.7408    0.0000 </r>
       <r>   26.7414    0.0000 </r>
       <r>   26.7414    0.0000 </r>
       <r>   26.7537    0.0000 </r>
       <r>   26.7537    0.0000 </r>
       <r>   26.7708    0.0000 </r>
       <r>   26.7708    0.0000 </r>
       <r>   26.8230    0.0000 </r>
       <r>   26.9548    0.0000 </r>
       <r>   26.9548    0.0000 </r>
       <r>   31.9299    0.0000 </r>
       <r>   33.8320    0.0000 </r>
       <r>   33.8320    0.0000 </r>
       <r>   34.1256    0.0000 </r>
       <r>   38.1722    0.0000 </r>
       <r>   38.1722    0.0000 </r>
       <r>   38.5358    0.0000 </r>
       <r>   38.7403    0.0000 </r>
       <r>   40.2510    0.0000 </r>
       <r>   40.2510    0.0000 </r>
       <r>   42.4490    0.0000 </r>
       <r>   42.4490    0.0000 </r>
       <r>   43.3140    0.0000 </r>
       <r>   43.6296    0.0000 </r>
       <r>   43.6296    0.0000 </r>
       <r>   43.7259    0.0000 </r>
       <r>   44.6855    0.0000 </r>
       <r>   45.3274    0.0000 </r>
       <r>   45.3275    0.0000 </r>
       <r>   45.6086    0.0000 </r>
       <r>   45.6086    0.0000 </r>
       <r>   45.6604    0.0000 </r>
       <r>   45.6604    0.0000 </r>
       <r>   47.1382    0.0000 </r>
       <r>   47.1382    0.0000 </r>
       <r>   47.7841    0.0000 </r>
       <r>   47.9166    0.0000 </r>
       <r>   47.9166    0.0000 </r>
       <r>   49.2565    0.0000 </r>
       <r>   49.2565    0.0000 </r>
       <r>   52.2696    0.0000 </r>
       <r>   52.3409    0.0000 </r>
       <r>   52.3409    0.0000 </r>
       <r>   52.3487    0.0000 </r>
       <r>   52.3487    0.0000 </r>
       <r>   53.1553    0.0000 </r>
       <r>   54.1711    0.0000 </r>
       <r>   54.1711    0.0000 </r>
       <r>   54.5918    0.0000 </r>
       <r>   54.5918    0.0000 </r>
       <r>   54.6160    0.0000 </r>
       <r>   55.6659    0.0000 </r>
       <r>   55.6659    0.0000 </r>
       <r>   56.2263    0.0000 </r>
       <r>   57.0548    0.0000 </r>
       <r>   57.0548    0.0000 </r>
       <r>   57.4358    0.0000 </r>
       <r>   57.8171    0.0000 </r>
       <r>   57.8171    0.0000 </r>
       <r>   61.5746    0.0000 </r>
       <r>   63.0509    0.0000 </r>
       <r>   63.1673    0.0000 </r>
       <r>   63.1895    0.0000 </r>
      </set>
      <set comment="kpoint 5">
       <r>   -2.2330    1.0000 </r>
       <r>   -0.5285    1.0000 </r>
       <r>   -0.5060    1.0000 </r>
       <r>   -0.5060    1.0000 </r>
       <r>   -0.2486    1.0000 </r>
       <r>   -0.2246    1.0000 </r>
       <r>   -0.2246    1.0000 </r>
       <r>    1.7562    1.0000 </r>
       <r>    1.8815    1.0000 </r>
       <r>    1.8815    1.0000 </r>
       <r>    3.2264    1.0000 </r>
       <r>    3.3283    1.0000 </r>
       <r>    4.2901    1.0000 </r>
       <r>    4.2901    1.0000 </r>
       <r>    4.3315    1.0000 </r>
       <r>    4.3315    1.0000 </r>
       <r>    4.3506    1.0000 </r>
       <r>    4.6205    0.6428 </r>
       <r>    4.6205    0.6428 </r>
       <r>    4.7378    0.0981 </r>
       <r>    4.7378    0.0981 </r>
       <r>    7.1958    0.0000 </r>
       <r>    8.3285    0.0000 </r>
       <r>    8.3285    0.0000 </r>
       <r>   14.7543    0.0000 </r>
       <r>   14.7543    0.0000 </r>
       <r>   15.5775    0.0000 </r>
       <r>   17.3796    0.0000 </r>
       <r>   17.3796    0.0000 </r>
       <r>   17.3802    0.0000 </r>
       <r>   17.3802    0.0000 </r>
       <r>   17.9326    0.0000 </r>
       <r>   17.9327    0.0000 </r>
       <r>   22.7143    0.0000 </r>
       <r>   25.3702    0.0000 </r>
       <r>   25.3851    0.0000 </r>
       <r>   25.7295    0.0000 </r>
       <r>   25.7295    0.0000 </r>
       <r>   26.0547    0.0000 </r>
       <r>   26.0547    0.0000 </r>
       <r>   26.4188    0.0000 </r>
       <r>   26.6959    0.0000 </r>
       <r>   26.6959    0.0000 </r>
       <r>   26.7249    0.0000 </r>
       <r>   26.7249    0.0000 </r>
       <r>   26.7391    0.0000 </r>
       <r>   26.7391    0.0000 </r>
       <r>   26.7423    0.0000 </r>
       <r>   26.7485    0.0000 </r>
       <r>   26.7485    0.0000 </r>
       <r>   26.7489    0.0000 </r>
       <r>   26.7489    0.0000 </r>
       <r>   26.7558    0.0000 </r>
       <r>   26.8883    0.0000 </r>
       <r>   26.8883    0.0000 </r>
       <r>   32.3138    0.0000 </r>
       <r>   33.7008    0.0000 </r>
       <r>   33.7008    0.0000 </r>
       <r>   34.2000    0.0000 </r>
       <r>   37.9322    0.0000 </r>
       <r>   37.9322    0.0000 </r>
       <r>   38.0864    0.0000 </r>
       <r>   38.5941    0.0000 </r>
       <r>   40.5466    0.0000 </r>
       <r>   40.5466    0.0000 </r>
       <r>   42.1286    0.0000 </r>
       <r>   42.1286    0.0000 </r>
       <r>   42.9652    0.0000 </r>
       <r>   42.9652    0.0000 </r>
       <r>   43.3556    0.0000 </r>
       <r>   43.6594    0.0000 </r>
       <r>   45.0749    0.0000 </r>
       <r>   45.0834    0.0000 </r>
       <r>   45.0834    0.0000 </r>
       <r>   45.4788    0.0000 </r>
       <r>   45.4788    0.0000 </r>
       <r>   45.6781    0.0000 </r>
       <r>   45.6781    0.0000 </r>
       <r>   47.1390    0.0000 </r>
       <r>   47.8752    0.0000 </r>
       <r>   47.8752    0.0000 </r>
       <r>   48.6660    0.0000 </r>
       <r>   48.6661    0.0000 </r>
       <r>   49.4822    0.0000 </r>
       <r>   49.4822    0.0000 </r>
       <r>   51.9592    0.0000 </r>
       <r>   51.9592    0.0000 </r>
       <r>   52.0103    0.0000 </r>
       <r>   52.0103    0.0000 </r>
       <r>   52.4544    0.0000 </r>
       <r>   53.2062    0.0000 </r>
       <r>   53.9713    0.0000 </r>
       <r>   53.9713    0.0000 </r>
       <r>   54.5981    0.0000 </r>
       <r>   54.5982    0.0000 </r>
       <r>   55.3804    0.0000 </r>
       <r>   56.2448    0.0000 </r>
       <r>   56.2448    0.0000 </r>
       <r>   56.2644    0.0000 </r>
       <r>   57.2602    0.0000 </r>
       <r>   57.3710    0.0000 </r>
       <r>   57.3710    0.0000 </r>
       <r>   58.0218    0.0000 </r>
       <r>   58.0218    0.0000 </r>
       <r>   61.6079    0.0000 </r>
       <r>   62.7032    0.0000 </r>
       <r>   62.7069    0.0000 </r>
       <r>   62.7089    0.0000 </r>
      </set>
      <set comment="kpoint 6">
       <r>   -2.1610    1.0000 </r>
       <r>   -0.4964    1.0000 </r>
       <r>   -0.4611    1.0000 </r>
       <r>   -0.4611    1.0000 </r>
       <r>   -0.2211    1.0000 </r>
       <r>   -0.1836    1.0000 </r>
       <r>   -0.1836    1.0000 </r>
       <r>    1.7189    1.0000 </r>
       <r>    1.9137    1.0000 </r>
       <r>    1.9137    1.0000 </r>
       <r>    3.1881    1.0000 </r>
       <r>    3.3436    1.0000 </r>
       <r>    4.1471    1.0000 </r>
       <r>    4.1471    1.0000 </r>
       <r>    4.2384    1.0000 </r>
       <r>    4.2384    1.0000 </r>
       <r>    4.3330    1.0000 </r>
       <r>    4.5578    0.8948 </r>
       <r>    4.5578    0.8948 </r>
       <r>    4.7377    0.0983 </r>
       <r>    4.7377    0.0983 </r>
       <r>    6.8912    0.0000 </r>
       <r>    8.5670    0.0000 </r>
       <r>    8.5670    0.0000 </r>
       <r>   14.7456    0.0000 </r>
       <r>   14.7457    0.0000 </r>
       <r>   15.9770    0.0000 </r>
       <r>   17.2211    0.0000 </r>
       <r>   17.2211    0.0000 </r>
       <r>   17.2380    0.0000 </r>
       <r>   17.2380    0.0000 </r>
       <r>   18.0743    0.0000 </r>
       <r>   18.0743    0.0000 </r>
       <r>   22.7727    0.0000 </r>
       <r>   25.3410    0.0000 </r>
       <r>   25.3701    0.0000 </r>
       <r>   25.8925    0.0000 </r>
       <r>   25.8925    0.0000 </r>
       <r>   26.1631    0.0000 </r>
       <r>   26.3866    0.0000 </r>
       <r>   26.3866    0.0000 </r>
       <r>   26.6844    0.0000 </r>
       <r>   26.6844    0.0000 </r>
       <r>   26.6951    0.0000 </r>
       <r>   26.6951    0.0000 </r>
       <r>   26.7345    0.0000 </r>
       <r>   26.7371    0.0000 </r>
       <r>   26.7371    0.0000 </r>
       <r>   26.7484    0.0000 </r>
       <r>   26.7492    0.0000 </r>
       <r>   26.7492    0.0000 </r>
       <r>   26.7586    0.0000 </r>
       <r>   26.7586    0.0000 </r>
       <r>   26.8377    0.0000 </r>
       <r>   26.8377    0.0000 </r>
       <r>   32.7560    0.0000 </r>
       <r>   33.5751    0.0000 </r>
       <r>   33.5751    0.0000 </r>
       <r>   34.2962    0.0000 </r>
       <r>   37.3934    0.0000 </r>
       <r>   37.6203    0.0000 </r>
       <r>   37.6203    0.0000 </r>
       <r>   38.6684    0.0000 </r>
       <r>   40.8993    0.0000 </r>
       <r>   40.8993    0.0000 </r>
       <r>   41.8784    0.0000 </r>
       <r>   41.8784    0.0000 </r>
       <r>   42.3159    0.0000 </r>
       <r>   42.3159    0.0000 </r>
       <r>   43.3973    0.0000 </r>
       <r>   43.5747    0.0000 </r>
       <r>   44.7644    0.0000 </r>
       <r>   44.7645    0.0000 </r>
       <r>   45.3345    0.0000 </r>
       <r>   45.3345    0.0000 </r>
       <r>   45.5351    0.0000 </r>
       <r>   45.6903    0.0000 </r>
       <r>   45.6903    0.0000 </r>
       <r>   46.4594    0.0000 </r>
       <r>   48.6702    0.0000 </r>
       <r>   48.6702    0.0000 </r>
       <r>   49.4239    0.0000 </r>
       <r>   49.4239    0.0000 </r>
       <r>   49.7487    0.0000 </r>
       <r>   49.7487    0.0000 </r>
       <r>   51.6174    0.0000 </r>
       <r>   51.6174    0.0000 </r>
       <r>   51.7106    0.0000 </r>
       <r>   51.7106    0.0000 </r>
       <r>   52.7081    0.0000 </r>
       <r>   53.2458    0.0000 </r>
       <r>   53.7247    0.0000 </r>
       <r>   53.7247    0.0000 </r>
       <r>   54.6064    0.0000 </r>
       <r>   54.6064    0.0000 </r>
       <r>   56.2132    0.0000 </r>
       <r>   56.3141    0.0000 </r>
       <r>   56.8493    0.0000 </r>
       <r>   56.8493    0.0000 </r>
       <r>   57.0323    0.0000 </r>
       <r>   57.5246    0.0000 </r>
       <r>   57.5246    0.0000 </r>
       <r>   58.4474    0.0000 </r>
       <r>   58.4474    0.0000 </r>
       <r>   61.8098    0.0000 </r>
       <r>   62.2283    0.0000 </r>
       <r>   62.2346    0.0000 </r>
       <r>   62.4296    0.0000 </r>
      </set>
      <set comment="kpoint 7">
       <r>   -2.0738    1.0000 </r>
       <r>   -0.4583    1.0000 </r>
       <r>   -0.4074    1.0000 </r>
       <r>   -0.4074    1.0000 </r>
       <r>   -0.1879    1.0000 </r>
       <r>   -0.1335    1.0000 </r>
       <r>   -0.1335    1.0000 </r>
       <r>    1.6741    1.0000 </r>
       <r>    1.9530    1.0000 </r>
       <r>    1.9530    1.0000 </r>
       <r>    3.1428    1.0000 </r>
       <r>    3.3622    1.0000 </r>
       <r>    3.9441    1.0000 </r>
       <r>    3.9441    1.0000 </r>
       <r>    4.1750    1.0000 </r>
       <r>    4.1750    1.0000 </r>
       <r>    4.3119    1.0000 </r>
       <r>    4.4837    0.9893 </r>
       <r>    4.4837    0.9893 </r>
       <r>    4.7376    0.0985 </r>
       <r>    4.7376    0.0985 </r>
       <r>    6.5564    0.0000 </r>
       <r>    8.8315    0.0000 </r>
       <r>    8.8315    0.0000 </r>
       <r>   14.7357    0.0000 </r>
       <r>   14.7357    0.0000 </r>
       <r>   16.4275    0.0000 </r>
       <r>   17.0341    0.0000 </r>
       <r>   17.0341    0.0000 </r>
       <r>   17.0822    0.0000 </r>
       <r>   17.0822    0.0000 </r>
       <r>   18.2448    0.0000 </r>
       <r>   18.2449    0.0000 </r>
       <r>   22.8423    0.0000 </r>
       <r>   25.3055    0.0000 </r>
       <r>   25.3555    0.0000 </r>
       <r>   25.8957    0.0000 </r>
       <r>   26.0860    0.0000 </r>
       <r>   26.0860    0.0000 </r>
       <r>   26.5579    0.0000 </r>
       <r>   26.5580    0.0000 </r>
       <r>   26.6951    0.0000 </r>
       <r>   26.6951    0.0000 </r>
       <r>   26.7177    0.0000 </r>
       <r>   26.7177    0.0000 </r>
       <r>   26.7297    0.0000 </r>
       <r>   26.7354    0.0000 </r>
       <r>   26.7354    0.0000 </r>
       <r>   26.7436    0.0000 </r>
       <r>   26.7534    0.0000 </r>
       <r>   26.7534    0.0000 </r>
       <r>   26.8022    0.0000 </r>
       <r>   26.8022    0.0000 </r>
       <r>   26.8183    0.0000 </r>
       <r>   26.8183    0.0000 </r>
       <r>   33.2327    0.0000 </r>
       <r>   33.4607    0.0000 </r>
       <r>   33.4607    0.0000 </r>
       <r>   34.4146    0.0000 </r>
       <r>   36.6847    0.0000 </r>
       <r>   37.2318    0.0000 </r>
       <r>   37.2318    0.0000 </r>
       <r>   38.7583    0.0000 </r>
       <r>   41.2967    0.0000 </r>
       <r>   41.2967    0.0000 </r>
       <r>   41.6824    0.0000 </r>
       <r>   41.6824    0.0000 </r>
       <r>   41.7066    0.0000 </r>
       <r>   41.7066    0.0000 </r>
       <r>   43.4406    0.0000 </r>
       <r>   43.4726    0.0000 </r>
       <r>   44.3710    0.0000 </r>
       <r>   44.3710    0.0000 </r>
       <r>   45.1837    0.0000 </r>
       <r>   45.1837    0.0000 </r>
       <r>   45.6893    0.0000 </r>
       <r>   45.6893    0.0000 </r>
       <r>   45.7673    0.0000 </r>
       <r>   45.9688    0.0000 </r>
       <r>   49.5076    0.0000 </r>
       <r>   49.5076    0.0000 </r>
       <r>   50.0473    0.0000 </r>
       <r>   50.0473    0.0000 </r>
       <r>   50.1888    0.0000 </r>
       <r>   50.1888    0.0000 </r>
       <r>   51.3281    0.0000 </r>
       <r>   51.3281    0.0000 </r>
       <r>   51.4651    0.0000 </r>
       <r>   51.4651    0.0000 </r>
       <r>   53.0160    0.0000 </r>
       <r>   53.2876    0.0000 </r>
       <r>   53.4375    0.0000 </r>
       <r>   53.4375    0.0000 </r>
       <r>   54.5711    0.0000 </r>
       <r>   54.5712    0.0000 </r>
       <r>   56.3756    0.0000 </r>
       <r>   56.7552    0.0000 </r>
       <r>   57.0922    0.0000 </r>
       <r>   57.4735    0.0000 </r>
       <r>   57.4735    0.0000 </r>
       <r>   57.5901    0.0000 </r>
       <r>   57.5901    0.0000 </r>
       <r>   58.9653    0.0000 </r>
       <r>   58.9653    0.0000 </r>
       <r>   61.6519    0.0000 </r>
       <r>   61.6529    0.0000 </r>
       <r>   61.8921    0.0000 </r>
       <r>   62.1434    0.0000 </r>
      </set>
      <set comment="kpoint 8">
       <r>   -1.9720    1.0000 </r>
       <r>   -0.4142    1.0000 </r>
       <r>   -0.3456    1.0000 </r>
       <r>   -0.3456    1.0000 </r>
       <r>   -0.1484    1.0000 </r>
       <r>   -0.0744    1.0000 </r>
       <r>   -0.0744    1.0000 </r>
       <r>    1.6205    1.0000 </r>
       <r>    1.9974    1.0000 </r>
       <r>    1.9974    1.0000 </r>
       <r>    3.0913    1.0000 </r>
       <r>    3.3839    1.0000 </r>
       <r>    3.7317    1.0000 </r>
       <r>    3.7317    1.0000 </r>
       <r>    4.1023    1.0000 </r>
       <r>    4.1023    1.0000 </r>
       <r>    4.3015    1.0000 </r>
       <r>    4.4024    0.9997 </r>
       <r>    4.4024    0.9997 </r>
       <r>    4.7376    0.0985 </r>
       <r>    4.7376    0.0985 </r>
       <r>    6.2030    0.0000 </r>
       <r>    9.1164    0.0000 </r>
       <r>    9.1164    0.0000 </r>
       <r>   14.7246    0.0000 </r>
       <r>   14.7246    0.0000 </r>
       <r>   16.8218    0.0000 </r>
       <r>   16.8218    0.0000 </r>
       <r>   16.9199    0.0000 </r>
       <r>   16.9199    0.0000 </r>
       <r>   16.9262    0.0000 </r>
       <r>   18.4440    0.0000 </r>
       <r>   18.4440    0.0000 </r>
       <r>   22.9222    0.0000 </r>
       <r>   25.2738    0.0000 </r>
       <r>   25.3499    0.0000 </r>
       <r>   25.6264    0.0000 </r>
       <r>   26.3075    0.0000 </r>
       <r>   26.3075    0.0000 </r>
       <r>   26.3855    0.0000 </r>
       <r>   26.3855    0.0000 </r>
       <r>   26.6996    0.0000 </r>
       <r>   26.7343    0.0000 </r>
       <r>   26.7343    0.0000 </r>
       <r>   26.7357    0.0000 </r>
       <r>   26.7357    0.0000 </r>
       <r>   26.7492    0.0000 </r>
       <r>   26.7492    0.0000 </r>
       <r>   26.7687    0.0000 </r>
       <r>   26.7803    0.0000 </r>
       <r>   26.7803    0.0000 </r>
       <r>   26.7985    0.0000 </r>
       <r>   26.7985    0.0000 </r>
       <r>   27.2164    0.0000 </r>
       <r>   27.2164    0.0000 </r>
       <r>   33.3540    0.0000 </r>
       <r>   33.3541    0.0000 </r>
       <r>   33.7046    0.0000 </r>
       <r>   34.5286    0.0000 </r>
       <r>   36.0022    0.0000 </r>
       <r>   36.7854    0.0000 </r>
       <r>   36.7854    0.0000 </r>
       <r>   38.8808    0.0000 </r>
       <r>   41.0670    0.0000 </r>
       <r>   41.0670    0.0000 </r>
       <r>   41.6088    0.0000 </r>
       <r>   41.6088    0.0000 </r>
       <r>   41.7250    0.0000 </r>
       <r>   41.7250    0.0000 </r>
       <r>   43.3537    0.0000 </r>
       <r>   43.4867    0.0000 </r>
       <r>   43.9092    0.0000 </r>
       <r>   43.9092    0.0000 </r>
       <r>   45.0322    0.0000 </r>
       <r>   45.0322    0.0000 </r>
       <r>   45.0815    0.0000 </r>
       <r>   45.6662    0.0000 </r>
       <r>   45.6662    0.0000 </r>
       <r>   46.3642    0.0000 </r>
       <r>   50.3711    0.0000 </r>
       <r>   50.3711    0.0000 </r>
       <r>   50.3788    0.0000 </r>
       <r>   50.3788    0.0000 </r>
       <r>   50.9619    0.0000 </r>
       <r>   50.9619    0.0000 </r>
       <r>   51.1022    0.0000 </r>
       <r>   51.1022    0.0000 </r>
       <r>   51.2786    0.0000 </r>
       <r>   51.2786    0.0000 </r>
       <r>   53.1319    0.0000 </r>
       <r>   53.1319    0.0000 </r>
       <r>   53.3342    0.0000 </r>
       <r>   53.3513    0.0000 </r>
       <r>   54.5229    0.0000 </r>
       <r>   54.5229    0.0000 </r>
       <r>   56.5341    0.0000 </r>
       <r>   56.7980    0.0000 </r>
       <r>   57.6281    0.0000 </r>
       <r>   57.6281    0.0000 </r>
       <r>   58.0096    0.0000 </r>
       <r>   58.1138    0.0000 </r>
       <r>   58.1138    0.0000 </r>
       <r>   59.5132    0.0000 </r>
       <r>   59.5132    0.0000 </r>
       <r>   61.0475    0.0000 </r>
       <r>   61.0476    0.0000 </r>
       <r>   61.8381    0.0000 </r>
       <r>   61.8485    0.0000 </r>
      </set>
      <set comment="kpoint 9">
       <r>   -1.8563    1.0000 </r>
       <r>   -0.3667    1.0000 </r>
       <r>   -0.2766    1.0000 </r>
       <r>   -0.2766    1.0000 </r>
       <r>   -0.1039    1.0000 </r>
       <r>   -0.0063    1.0000 </r>
       <r>   -0.0063    1.0000 </r>
       <r>    1.5621    1.0000 </r>
       <r>    2.0502    1.0000 </r>
       <r>    2.0502    1.0000 </r>
       <r>    3.0346    1.0000 </r>
       <r>    3.4086    1.0000 </r>
       <r>    3.5145    1.0000 </r>
       <r>    3.5145    1.0000 </r>
       <r>    4.0214    1.0000 </r>
       <r>    4.0214    1.0000 </r>
       <r>    4.2733    1.0000 </r>
       <r>    4.3087    1.0000 </r>
       <r>    4.3087    1.0000 </r>
       <r>    4.7376    0.0984 </r>
       <r>    4.7376    0.0984 </r>
       <r>    5.8387    0.0000 </r>
       <r>    9.4171    0.0000 </r>
       <r>    9.4171    0.0000 </r>
       <r>   14.7125    0.0000 </r>
       <r>   14.7126    0.0000 </r>
       <r>   16.5870    0.0000 </r>
       <r>   16.5870    0.0000 </r>
       <r>   16.7569    0.0000 </r>
       <r>   16.7569    0.0000 </r>
       <r>   17.4462    0.0000 </r>
       <r>   18.6680    0.0000 </r>
       <r>   18.6680    0.0000 </r>
       <r>   23.0115    0.0000 </r>
       <r>   25.2253    0.0000 </r>
       <r>   25.3430    0.0000 </r>
       <r>   25.3630    0.0000 </r>
       <r>   26.1749    0.0000 </r>
       <r>   26.1749    0.0000 </r>
       <r>   26.5533    0.0000 </r>
       <r>   26.5533    0.0000 </r>
       <r>   26.6947    0.0000 </r>
       <r>   26.7352    0.0000 </r>
       <r>   26.7352    0.0000 </r>
       <r>   26.7366    0.0000 </r>
       <r>   26.7366    0.0000 </r>
       <r>   26.7462    0.0000 </r>
       <r>   26.7462    0.0000 </r>
       <r>   26.7664    0.0000 </r>
       <r>   26.7751    0.0000 </r>
       <r>   26.7751    0.0000 </r>
       <r>   26.7968    0.0000 </r>
       <r>   26.7968    0.0000 </r>
       <r>   27.6887    0.0000 </r>
       <r>   27.6887    0.0000 </r>
       <r>   33.2956    0.0000 </r>
       <r>   33.2956    0.0000 </r>
       <r>   34.0400    0.0000 </r>
       <r>   34.6905    0.0000 </r>
       <r>   35.4788    0.0000 </r>
       <r>   36.2968    0.0000 </r>
       <r>   36.2968    0.0000 </r>
       <r>   39.0030    0.0000 </r>
       <r>   40.4670    0.0000 </r>
       <r>   40.4670    0.0000 </r>
       <r>   41.5742    0.0000 </r>
       <r>   41.5742    0.0000 </r>
       <r>   42.1824    0.0000 </r>
       <r>   42.1825    0.0000 </r>
       <r>   43.2191    0.0000 </r>
       <r>   43.3881    0.0000 </r>
       <r>   43.3881    0.0000 </r>
       <r>   43.5209    0.0000 </r>
       <r>   44.3973    0.0000 </r>
       <r>   44.8844    0.0000 </r>
       <r>   44.8844    0.0000 </r>
       <r>   45.6130    0.0000 </r>
       <r>   45.6130    0.0000 </r>
       <r>   46.7182    0.0000 </r>
       <r>   50.7146    0.0000 </r>
       <r>   50.7146    0.0000 </r>
       <r>   50.9490    0.0000 </r>
       <r>   50.9490    0.0000 </r>
       <r>   51.1490    0.0000 </r>
       <r>   51.1490    0.0000 </r>
       <r>   51.2785    0.0000 </r>
       <r>   51.2785    0.0000 </r>
       <r>   51.7356    0.0000 </r>
       <r>   51.7356    0.0000 </r>
       <r>   52.7823    0.0000 </r>
       <r>   52.7823    0.0000 </r>
       <r>   53.3420    0.0000 </r>
       <r>   53.7408    0.0000 </r>
       <r>   54.4648    0.0000 </r>
       <r>   54.4648    0.0000 </r>
       <r>   56.1891    0.0000 </r>
       <r>   56.8753    0.0000 </r>
       <r>   57.6566    0.0000 </r>
       <r>   57.6566    0.0000 </r>
       <r>   58.7676    0.0000 </r>
       <r>   58.7676    0.0000 </r>
       <r>   58.9474    0.0000 </r>
       <r>   60.0602    0.0000 </r>
       <r>   60.0603    0.0000 </r>
       <r>   60.4255    0.0000 </r>
       <r>   60.4255    0.0000 </r>
       <r>   61.5379    0.0000 </r>
       <r>   61.9488    0.0000 </r>
      </set>
      <set comment="kpoint 10">
       <r>   -1.7275    1.0000 </r>
       <r>   -0.3162    1.0000 </r>
       <r>   -0.2017    1.0000 </r>
       <r>   -0.2017    1.0000 </r>
       <r>   -0.0540    1.0000 </r>
       <r>    0.0707    1.0000 </r>
       <r>    0.0707    1.0000 </r>
       <r>    1.4977    1.0000 </r>
       <r>    2.1097    1.0000 </r>
       <r>    2.1097    1.0000 </r>
       <r>    2.9741    1.0000 </r>
       <r>    3.2955    1.0000 </r>
       <r>    3.2955    1.0000 </r>
       <r>    3.4362    1.0000 </r>
       <r>    3.9339    1.0000 </r>
       <r>    3.9339    1.0000 </r>
       <r>    4.2072    1.0000 </r>
       <r>    4.2072    1.0000 </r>
       <r>    4.2422    1.0000 </r>
       <r>    4.7377    0.0983 </r>
       <r>    4.7377    0.0983 </r>
       <r>    5.4713    0.0000 </r>
       <r>    9.7303    0.0000 </r>
       <r>    9.7303    0.0000 </r>
       <r>   14.6999    0.0000 </r>
       <r>   14.6999    0.0000 </r>
       <r>   16.3325    0.0000 </r>
       <r>   16.3325    0.0000 </r>
       <r>   16.5980    0.0000 </r>
       <r>   16.5980    0.0000 </r>
       <r>   17.9880    0.0000 </r>
       <r>   18.9164    0.0000 </r>
       <r>   18.9164    0.0000 </r>
       <r>   23.1089    0.0000 </r>
       <r>   25.1083    0.0000 </r>
       <r>   25.1704    0.0000 </r>
       <r>   25.3448    0.0000 </r>
       <r>   25.9294    0.0000 </r>
       <r>   25.9294    0.0000 </r>
       <r>   26.6904    0.0000 </r>
       <r>   26.7231    0.0000 </r>
       <r>   26.7231    0.0000 </r>
       <r>   26.7383    0.0000 </r>
       <r>   26.7383    0.0000 </r>
       <r>   26.7441    0.0000 </r>
       <r>   26.7441    0.0000 </r>
       <r>   26.7668    0.0000 </r>
       <r>   26.7717    0.0000 </r>
       <r>   26.7717    0.0000 </r>
       <r>   26.7961    0.0000 </r>
       <r>   26.7961    0.0000 </r>
       <r>   26.8366    0.0000 </r>
       <r>   26.8366    0.0000 </r>
       <r>   28.1945    0.0000 </r>
       <r>   28.1945    0.0000 </r>
       <r>   33.2747    0.0000 </r>
       <r>   33.2747    0.0000 </r>
       <r>   33.8686    0.0000 </r>
       <r>   34.8756    0.0000 </r>
       <r>   35.4842    0.0000 </r>
       <r>   35.7804    0.0000 </r>
       <r>   35.7805    0.0000 </r>
       <r>   39.1393    0.0000 </r>
       <r>   39.8848    0.0000 </r>
       <r>   39.8848    0.0000 </r>
       <r>   41.5914    0.0000 </r>
       <r>   41.5914    0.0000 </r>
       <r>   42.6598    0.0000 </r>
       <r>   42.6598    0.0000 </r>
       <r>   42.8187    0.0000 </r>
       <r>   42.8187    0.0000 </r>
       <r>   43.0698    0.0000 </r>
       <r>   43.5415    0.0000 </r>
       <r>   43.7251    0.0000 </r>
       <r>   44.7435    0.0000 </r>
       <r>   44.7435    0.0000 </r>
       <r>   45.5234    0.0000 </r>
       <r>   45.5234    0.0000 </r>
       <r>   47.0317    0.0000 </r>
       <r>   50.8751    0.0000 </r>
       <r>   50.8751    0.0000 </r>
       <r>   51.0701    0.0000 </r>
       <r>   51.0702    0.0000 </r>
       <r>   51.0729    0.0000 </r>
       <r>   51.0729    0.0000 </r>
       <r>   52.2034    0.0000 </r>
       <r>   52.2034    0.0000 </r>
       <r>   52.3853    0.0000 </r>
       <r>   52.3853    0.0000 </r>
       <r>   52.5337    0.0000 </r>
       <r>   52.5337    0.0000 </r>
       <r>   53.2957    0.0000 </r>
       <r>   54.1534    0.0000 </r>
       <r>   54.3989    0.0000 </r>
       <r>   54.3989    0.0000 </r>
       <r>   55.8623    0.0000 </r>
       <r>   56.9645    0.0000 </r>
       <r>   57.6813    0.0000 </r>
       <r>   57.6813    0.0000 </r>
       <r>   59.4326    0.0000 </r>
       <r>   59.4326    0.0000 </r>
       <r>   59.7937    0.0000 </r>
       <r>   59.7938    0.0000 </r>
       <r>   59.9059    0.0000 </r>
       <r>   60.5914    0.0000 </r>
       <r>   60.5915    0.0000 </r>
       <r>   61.2212    0.0000 </r>
       <r>   61.9981    0.0000 </r>
      </set>
      <set comment="kpoint 11">
       <r>   -1.5870    1.0000 </r>
       <r>   -0.2644    1.0000 </r>
       <r>   -0.1221    1.0000 </r>
       <r>   -0.1221    1.0000 </r>
       <r>    0.0010    1.0000 </r>
       <r>    0.1567    1.0000 </r>
       <r>    0.1567    1.0000 </r>
       <r>    1.4284    1.0000 </r>
       <r>    2.1770    1.0000 </r>
       <r>    2.1770    1.0000 </r>
       <r>    2.9128    1.0000 </r>
       <r>    3.0770    1.0000 </r>
       <r>    3.0770    1.0000 </r>
       <r>    3.4665    1.0000 </r>
       <r>    3.8414    1.0000 </r>
       <r>    3.8414    1.0000 </r>
       <r>    4.0995    1.0000 </r>
       <r>    4.0995    1.0000 </r>
       <r>    4.2084    1.0000 </r>
       <r>    4.7378    0.0980 </r>
       <r>    4.7378    0.0980 </r>
       <r>    5.1067    0.0000 </r>
       <r>   10.0534    0.0000 </r>
       <r>   10.0534    0.0000 </r>
       <r>   14.6869    0.0000 </r>
       <r>   14.6869    0.0000 </r>
       <r>   16.0608    0.0000 </r>
       <r>   16.0608    0.0000 </r>
       <r>   16.4469    0.0000 </r>
       <r>   16.4469    0.0000 </r>
       <r>   18.5443    0.0000 </r>
       <r>   19.1873    0.0000 </r>
       <r>   19.1873    0.0000 </r>
       <r>   23.2154    0.0000 </r>
       <r>   24.8663    0.0000 </r>
       <r>   25.1091    0.0000 </r>
       <r>   25.3594    0.0000 </r>
       <r>   25.6570    0.0000 </r>
       <r>   25.6571    0.0000 </r>
       <r>   26.7273    0.0000 </r>
       <r>   26.7273    0.0000 </r>
       <r>   26.7397    0.0000 </r>
       <r>   26.7414    0.0000 </r>
       <r>   26.7414    0.0000 </r>
       <r>   26.7431    0.0000 </r>
       <r>   26.7431    0.0000 </r>
       <r>   26.7698    0.0000 </r>
       <r>   26.7799    0.0000 </r>
       <r>   26.7799    0.0000 </r>
       <r>   26.7962    0.0000 </r>
       <r>   26.7962    0.0000 </r>
       <r>   27.1265    0.0000 </r>
       <r>   27.1265    0.0000 </r>
       <r>   28.7270    0.0000 </r>
       <r>   28.7270    0.0000 </r>
       <r>   33.2736    0.0000 </r>
       <r>   33.2978    0.0000 </r>
       <r>   33.2978    0.0000 </r>
       <r>   35.0855    0.0000 </r>
       <r>   35.2480    0.0000 </r>
       <r>   35.2480    0.0000 </r>
       <r>   35.9381    0.0000 </r>
       <r>   39.2889    0.0000 </r>
       <r>   39.3209    0.0000 </r>
       <r>   39.3209    0.0000 </r>
       <r>   41.6507    0.0000 </r>
       <r>   41.6507    0.0000 </r>
       <r>   42.2126    0.0000 </r>
       <r>   42.2127    0.0000 </r>
       <r>   42.9068    0.0000 </r>
       <r>   43.0680    0.0000 </r>
       <r>   43.1669    0.0000 </r>
       <r>   43.1669    0.0000 </r>
       <r>   43.5420    0.0000 </r>
       <r>   44.6116    0.0000 </r>
       <r>   44.6116    0.0000 </r>
       <r>   45.3949    0.0000 </r>
       <r>   45.3949    0.0000 </r>
       <r>   47.3403    0.0000 </r>
       <r>   50.8830    0.0000 </r>
       <r>   50.8830    0.0000 </r>
       <r>   51.0339    0.0000 </r>
       <r>   51.0339    0.0000 </r>
       <r>   51.4415    0.0000 </r>
       <r>   51.4415    0.0000 </r>
       <r>   52.0047    0.0000 </r>
       <r>   52.0047    0.0000 </r>
       <r>   53.1510    0.0000 </r>
       <r>   53.1510    0.0000 </r>
       <r>   53.1554    0.0000 </r>
       <r>   53.2944    0.0000 </r>
       <r>   53.2944    0.0000 </r>
       <r>   54.3272    0.0000 </r>
       <r>   54.3272    0.0000 </r>
       <r>   54.5750    0.0000 </r>
       <r>   55.6052    0.0000 </r>
       <r>   57.0655    0.0000 </r>
       <r>   57.7041    0.0000 </r>
       <r>   57.7041    0.0000 </r>
       <r>   59.1579    0.0000 </r>
       <r>   59.1579    0.0000 </r>
       <r>   60.1064    0.0000 </r>
       <r>   60.1064    0.0000 </r>
       <r>   60.8816    0.0000 </r>
       <r>   60.9050    0.0000 </r>
       <r>   61.0971    0.0000 </r>
       <r>   61.0971    0.0000 </r>
       <r>   61.6248    0.0000 </r>
      </set>
      <set comment="kpoint 12">
       <r>   -1.4361    1.0000 </r>
       <r>   -0.2131    1.0000 </r>
       <r>   -0.0396    1.0000 </r>
       <r>   -0.0396    1.0000 </r>
       <r>    0.0609    1.0000 </r>
       <r>    0.2515    1.0000 </r>
       <r>    0.2515    1.0000 </r>
       <r>    1.3541    1.0000 </r>
       <r>    2.2492    1.0000 </r>
       <r>    2.2492    1.0000 </r>
       <r>    2.8495    1.0000 </r>
       <r>    2.8608    1.0000 </r>
       <r>    2.8608    1.0000 </r>
       <r>    3.4994    1.0000 </r>
       <r>    3.7460    1.0000 </r>
       <r>    3.7460    1.0000 </r>
       <r>    3.9866    1.0000 </r>
       <r>    3.9866    1.0000 </r>
       <r>    4.1721    1.0000 </r>
       <r>    4.7380    0.0976 </r>
       <r>    4.7380    0.0976 </r>
       <r>    4.7502    0.0710 </r>
       <r>   10.3844    0.0000 </r>
       <r>   10.3844    0.0000 </r>
       <r>   14.6739    0.0000 </r>
       <r>   14.6739    0.0000 </r>
       <r>   15.7742    0.0000 </r>
       <r>   15.7743    0.0000 </r>
       <r>   16.3066    0.0000 </r>
       <r>   16.3066    0.0000 </r>
       <r>   19.1080    0.0000 </r>
       <r>   19.4791    0.0000 </r>
       <r>   19.4791    0.0000 </r>
       <r>   23.3256    0.0000 </r>
       <r>   24.6335    0.0000 </r>
       <r>   25.0415    0.0000 </r>
       <r>   25.3504    0.0000 </r>
       <r>   25.3504    0.0000 </r>
       <r>   25.3918    0.0000 </r>
       <r>   26.7275    0.0000 </r>
       <r>   26.7275    0.0000 </r>
       <r>   26.7289    0.0000 </r>
       <r>   26.7431    0.0000 </r>
       <r>   26.7431    0.0000 </r>
       <r>   26.7462    0.0000 </r>
       <r>   26.7462    0.0000 </r>
       <r>   26.7755    0.0000 </r>
       <r>   26.7765    0.0000 </r>
       <r>   26.7765    0.0000 </r>
       <r>   26.7972    0.0000 </r>
       <r>   26.7972    0.0000 </r>
       <r>   27.4416    0.0000 </r>
       <r>   27.4416    0.0000 </r>
       <r>   29.2797    0.0000 </r>
       <r>   29.2797    0.0000 </r>
       <r>   32.5682    0.0000 </r>
       <r>   33.3583    0.0000 </r>
       <r>   33.3583    0.0000 </r>
       <r>   34.7082    0.0000 </r>
       <r>   34.7083    0.0000 </r>
       <r>   35.3179    0.0000 </r>
       <r>   36.5193    0.0000 </r>
       <r>   38.7759    0.0000 </r>
       <r>   38.7759    0.0000 </r>
       <r>   39.4509    0.0000 </r>
       <r>   41.5816    0.0000 </r>
       <r>   41.5816    0.0000 </r>
       <r>   41.7446    0.0000 </r>
       <r>   41.7446    0.0000 </r>
       <r>   42.4284    0.0000 </r>
       <r>   42.7316    0.0000 </r>
       <r>   43.5152    0.0000 </r>
       <r>   43.6694    0.0000 </r>
       <r>   43.6694    0.0000 </r>
       <r>   44.4906    0.0000 </r>
       <r>   44.4906    0.0000 </r>
       <r>   45.2288    0.0000 </r>
       <r>   45.2288    0.0000 </r>
       <r>   47.5860    0.0000 </r>
       <r>   50.9709    0.0000 </r>
       <r>   50.9709    0.0000 </r>
       <r>   51.0316    0.0000 </r>
       <r>   51.0316    0.0000 </r>
       <r>   51.5901    0.0000 </r>
       <r>   51.5901    0.0000 </r>
       <r>   51.8159    0.0000 </r>
       <r>   51.8159    0.0000 </r>
       <r>   52.8908    0.0000 </r>
       <r>   54.0689    0.0000 </r>
       <r>   54.0689    0.0000 </r>
       <r>   54.1193    0.0000 </r>
       <r>   54.1193    0.0000 </r>
       <r>   54.2513    0.0000 </r>
       <r>   54.2513    0.0000 </r>
       <r>   54.9830    0.0000 </r>
       <r>   55.4618    0.0000 </r>
       <r>   57.1785    0.0000 </r>
       <r>   57.7258    0.0000 </r>
       <r>   57.7258    0.0000 </r>
       <r>   58.5229    0.0000 </r>
       <r>   58.5229    0.0000 </r>
       <r>   60.5924    0.0000 </r>
       <r>   60.7859    0.0000 </r>
       <r>   60.7859    0.0000 </r>
       <r>   61.2386    0.0000 </r>
       <r>   61.2390    0.0000 </r>
       <r>   61.5706    0.0000 </r>
       <r>   61.5706    0.0000 </r>
      </set>
      <set comment="kpoint 13">
       <r>   -1.2769    1.0000 </r>
       <r>   -0.1660    1.0000 </r>
       <r>    0.0438    1.0000 </r>
       <r>    0.0438    1.0000 </r>
       <r>    0.1255    1.0000 </r>
       <r>    0.3551    1.0000 </r>
       <r>    0.3551    1.0000 </r>
       <r>    1.2759    1.0000 </r>
       <r>    2.3276    1.0000 </r>
       <r>    2.3276    1.0000 </r>
       <r>    2.6481    1.0000 </r>
       <r>    2.6481    1.0000 </r>
       <r>    2.7884    1.0000 </r>
       <r>    3.5346    1.0000 </r>
       <r>    3.6500    1.0000 </r>
       <r>    3.6500    1.0000 </r>
       <r>    3.8682    1.0000 </r>
       <r>    3.8682    1.0000 </r>
       <r>    4.1335    1.0000 </r>
       <r>    4.4060    0.9997 </r>
       <r>    4.7382    0.0972 </r>
       <r>    4.7382    0.0972 </r>
       <r>   10.7218    0.0000 </r>
       <r>   10.7218    0.0000 </r>
       <r>   14.6613    0.0000 </r>
       <r>   14.6613    0.0000 </r>
       <r>   15.4749    0.0000 </r>
       <r>   15.4749    0.0000 </r>
       <r>   16.1795    0.0000 </r>
       <r>   16.1795    0.0000 </r>
       <r>   19.6584    0.0000 </r>
       <r>   19.7890    0.0000 </r>
       <r>   19.7890    0.0000 </r>
       <r>   23.4403    0.0000 </r>
       <r>   24.4111    0.0000 </r>
       <r>   24.9677    0.0000 </r>
       <r>   25.0189    0.0000 </r>
       <r>   25.0189    0.0000 </r>
       <r>   25.4440    0.0000 </r>
       <r>   26.7100    0.0000 </r>
       <r>   26.7192    0.0000 </r>
       <r>   26.7276    0.0000 </r>
       <r>   26.7276    0.0000 </r>
       <r>   26.7442    0.0000 </r>
       <r>   26.7442    0.0000 </r>
       <r>   26.7526    0.0000 </r>
       <r>   26.7526    0.0000 </r>
       <r>   26.7735    0.0000 </r>
       <r>   26.7735    0.0000 </r>
       <r>   26.7924    0.0000 </r>
       <r>   26.7924    0.0000 </r>
       <r>   27.7771    0.0000 </r>
       <r>   27.7771    0.0000 </r>
       <r>   29.8459    0.0000 </r>
       <r>   29.8459    0.0000 </r>
       <r>   31.8389    0.0000 </r>
       <r>   33.4604    0.0000 </r>
       <r>   33.4604    0.0000 </r>
       <r>   34.1676    0.0000 </r>
       <r>   34.1676    0.0000 </r>
       <r>   35.5749    0.0000 </r>
       <r>   37.1436    0.0000 </r>
       <r>   38.2494    0.0000 </r>
       <r>   38.2494    0.0000 </r>
       <r>   39.6244    0.0000 </r>
       <r>   40.9371    0.0000 </r>
       <r>   40.9371    0.0000 </r>
       <r>   41.8081    0.0000 </r>
       <r>   41.8674    0.0000 </r>
       <r>   41.8674    0.0000 </r>
       <r>   42.5454    0.0000 </r>
       <r>   43.4322    0.0000 </r>
       <r>   44.1791    0.0000 </r>
       <r>   44.1791    0.0000 </r>
       <r>   44.3817    0.0000 </r>
       <r>   44.3817    0.0000 </r>
       <r>   45.0302    0.0000 </r>
       <r>   45.0302    0.0000 </r>
       <r>   47.8104    0.0000 </r>
       <r>   51.0551    0.0000 </r>
       <r>   51.0551    0.0000 </r>
       <r>   51.1335    0.0000 </r>
       <r>   51.1335    0.0000 </r>
       <r>   51.1520    0.0000 </r>
       <r>   51.1520    0.0000 </r>
       <r>   52.1906    0.0000 </r>
       <r>   52.1907    0.0000 </r>
       <r>   52.4922    0.0000 </r>
       <r>   54.1731    0.0000 </r>
       <r>   54.1731    0.0000 </r>
       <r>   54.8301    0.0000 </r>
       <r>   54.8302    0.0000 </r>
       <r>   55.1067    0.0000 </r>
       <r>   55.1067    0.0000 </r>
       <r>   55.3625    0.0000 </r>
       <r>   55.4102    0.0000 </r>
       <r>   57.2977    0.0000 </r>
       <r>   57.7463    0.0000 </r>
       <r>   57.7463    0.0000 </r>
       <r>   57.8926    0.0000 </r>
       <r>   57.8926    0.0000 </r>
       <r>   60.2863    0.0000 </r>
       <r>   60.8464    0.0000 </r>
       <r>   60.8464    0.0000 </r>
       <r>   61.4672    0.0000 </r>
       <r>   61.4672    0.0000 </r>
       <r>   62.0066    0.0000 </r>
       <r>   62.0066    0.0000 </r>
      </set>
      <set comment="kpoint 14">
       <r>   -1.1117    1.0000 </r>
       <r>   -0.1241    1.0000 </r>
[...]
       <r>    3.3007    1.0000 </r>
       <r>    4.3815    0.9999 </r>
       <r>    4.3815    0.9999 </r>
       <r>    4.3816    0.9999 </r>
       <r>    4.7317    0.1139 </r>
       <r>    4.7317    0.1139 </r>
       <r>    4.7317    0.1139 </r>
       <r>    4.7317    0.1139 </r>
       <r>    4.7317    0.1138 </r>
       <r>    4.7317    0.1138 </r>
       <r>    7.8321    0.0000 </r>
       <r>    7.8321    0.0000 </r>
       <r>    7.8321    0.0000 </r>
       <r>   14.7625    0.0000 </r>
       <r>   14.7625    0.0000 </r>
       <r>   14.7625    0.0000 </r>
       <r>   17.6754    0.0000 </r>
       <r>   17.6754    0.0000 </r>
       <r>   17.6754    0.0000 </r>
       <r>   17.6755    0.0000 </r>
       <r>   17.6755    0.0000 </r>
       <r>   17.6755    0.0000 </r>
       <r>   22.6077    0.0000 </r>
       <r>   25.4087    0.0000 </r>
       <r>   25.4087    0.0000 </r>
       <r>   25.4087    0.0000 </r>
       <r>   25.4182    0.0000 </r>
       <r>   25.4182    0.0000 </r>
       <r>   25.4182    0.0000 </r>
       <r>   26.6707    0.0000 </r>
       <r>   26.6707    0.0000 </r>
       <r>   26.6707    0.0000 </r>
       <r>   26.6760    0.0000 </r>
       <r>   26.6760    0.0000 </r>
       <r>   26.6760    0.0000 </r>
       <r>   26.6760    0.0000 </r>
       <r>   26.6760    0.0000 </r>
       <r>   26.6760    0.0000 </r>
       <r>   26.7805    0.0000 </r>
       <r>   26.7805    0.0000 </r>
       <r>   26.7805    0.0000 </r>
       <r>   27.0494    0.0000 </r>
       <r>   27.0494    0.0000 </r>
       <r>   27.0495    0.0000 </r>
       <r>   31.3629    0.0000 </r>
       <r>   34.0301    0.0000 </r>
       <r>   34.0301    0.0000 </r>
       <r>   34.0302    0.0000 </r>
       <r>   38.4579    0.0000 </r>
       <r>   38.4579    0.0000 </r>
       <r>   38.4579    0.0000 </r>
       <r>   39.8344    0.0000 </r>
       <r>   39.8344    0.0000 </r>
       <r>   39.8344    0.0000 </r>
       <r>   43.2619    0.0000 </r>
       <r>   43.2619    0.0000 </r>
       <r>   43.2619    0.0000 </r>
       <r>   43.8124    0.0000 </r>
       <r>   43.8124    0.0000 </r>
       <r>   45.6225    0.0000 </r>
       <r>   45.6225    0.0000 </r>
       <r>   45.6225    0.0000 </r>
       <r>   45.6226    0.0000 </r>
       <r>   45.6226    0.0000 </r>
       <r>   45.6226    0.0000 </r>
       <r>   45.7946    0.0000 </r>
       <r>   45.7946    0.0000 </r>
       <r>   45.7946    0.0000 </r>
       <r>   45.7947    0.0000 </r>
       <r>   45.7947    0.0000 </r>
       <r>   45.7947    0.0000 </r>
       <r>   48.9243    0.0000 </r>
       <r>   48.9243    0.0000 </r>
       <r>   48.9243    0.0000 </r>
       <r>   52.0193    0.0000 </r>
       <r>   53.0554    0.0000 </r>
       <r>   53.0554    0.0000 </r>
       <r>   53.0554    0.0000 </r>
       <r>   53.3165    0.0000 </r>
       <r>   53.3165    0.0000 </r>
       <r>   53.3166    0.0000 </r>
       <r>   54.4330    0.0000 </r>
       <r>   54.4330    0.0000 </r>
       <r>   54.4330    0.0000 </r>
       <r>   54.4331    0.0000 </r>
       <r>   54.4331    0.0000 </r>
       <r>   54.4331    0.0000 </r>
       <r>   56.1588    0.0000 </r>
       <r>   56.1588    0.0000 </r>
       <r>   56.1588    0.0000 </r>
       <r>   57.6428    0.0000 </r>
       <r>   57.6428    0.0000 </r>
       <r>   57.6428    0.0000 </r>
       <r>   63.1762    0.0000 </r>
       <r>   63.7284    0.0000 </r>
       <r>   63.7284    0.0000 </r>
       <r>   63.7284    0.0000 </r>
      </set>
     </set>
    </set>
   </array>
  </eigenvalues>
  <separator name="orbital magnetization" >
   <v name="MAGDIPOLOUT">      0.00000000      0.00000000      0.00000000</v>
  </separator>
  <dos>
   <i name="efermi">      4.64638968 </i>
   <total>
    <array>
     <dimension dim="1">gridpoints</dimension>
     <dimension dim="2">spin</dimension>
     <field>energy</field>
     <field>total</field>
     <field>integrated</field>
     <set>
      <set comment="spin 1">
       <r>    -5.7635     0.0000     0.0000 </r>
       <r>    -5.5141     0.0000     0.0000 </r>
       <r>    -5.2647     0.0000     0.0000 </r>
       <r>    -5.0153     0.0000     0.0000 </r>
       <r>    -4.7659     0.0000     0.0000 </r>
       <r>    -4.5164     0.0000     0.0000 </r>
       <r>    -4.2670     0.0000     0.0000 </r>
       <r>    -4.0176     0.0000     0.0000 </r>
       <r>    -3.7682     0.0000     0.0000 </r>
       <r>    -3.5188     0.0000     0.0000 </r>
       <r>    -3.2694     0.0000     0.0000 </r>
       <r>    -3.0200     0.0000     0.0000 </r>
       <r>    -2.7706     0.0000     0.0000 </r>
       <r>    -2.5212     0.0041     0.0010 </r>
       <r>    -2.2718     0.5612     0.1410 </r>
       <r>    -2.0224     0.5553     0.2795 </r>
       <r>    -1.7730     0.3457     0.3657 </r>
       <r>    -1.5236     0.2853     0.4369 </r>
       <r>    -1.2742     0.2557     0.5006 </r>
       <r>    -1.0247     0.4355     0.6093 </r>
       <r>    -0.7753     0.7895     0.8062 </r>
       <r>    -0.5259     2.3949     1.4035 </r>
       <r>    -0.2765     4.8404     2.6107 </r>
       <r>    -0.0271     8.0010     4.6062 </r>
       <r>     0.2223     5.8360     6.0617 </r>
       <r>     0.4717     8.3204     8.1369 </r>
       <r>     0.7211     7.9541    10.1207 </r>
       <r>     0.9705     9.1089    12.3926 </r>
       <r>     1.2199     6.6324    14.0467 </r>
       <r>     1.4693    12.3949    17.1381 </r>
       <r>     1.7187     5.0849    18.4063 </r>
       <r>     1.9681     5.2824    19.7238 </r>
       <r>     2.2176     3.8439    20.6825 </r>
       <r>     2.4670     4.0837    21.7010 </r>
       <r>     2.7164     5.7436    23.1335 </r>
       <r>     2.9658     9.2508    25.4407 </r>
       <r>     3.2152    14.3742    29.0258 </r>
       <r>     3.4646    11.9501    32.0062 </r>
       <r>     3.7140     6.4789    33.6221 </r>
       <r>     3.9634     7.8995    35.5923 </r>
       <r>     4.2128     5.7701    37.0314 </r>
       <r>     4.4622     7.1811    38.8224 </r>
       <r>     4.7116     8.3520    40.9055 </r>
       <r>     4.9610     7.1994    42.7011 </r>
       <r>     5.2104     0.6249    42.8569 </r>
       <r>     5.4599     0.6171    43.0108 </r>
       <r>     5.7093     0.5044    43.1366 </r>
       <r>     5.9587     0.6585    43.3009 </r>
       <r>     6.2081     0.4730    43.4188 </r>
       <r>     6.4575     0.5931    43.5668 </r>
       <r>     6.7069     0.6920    43.7393 </r>
       <r>     6.9563     0.6968    43.9131 </r>
       <r>     7.2057     0.4558    44.0268 </r>
       <r>     7.4551     0.4546    44.1402 </r>
       <r>     7.7045     0.6230    44.2956 </r>
       <r>     7.9539     1.3177    44.6242 </r>
       <r>     8.2033     0.9587    44.8633 </r>
       <r>     8.4527     0.6538    45.0264 </r>
       <r>     8.7022     0.5276    45.1580 </r>
       <r>     8.9516     0.6507    45.3202 </r>
       <r>     9.2010     0.5923    45.4680 </r>
       <r>     9.4504     0.5397    45.6026 </r>
       <r>     9.6998     0.4292    45.7096 </r>
       <r>     9.9492     0.5351    45.8431 </r>
       <r>    10.1986     0.5688    45.9849 </r>
       <r>    10.4480     0.4838    46.1056 </r>
       <r>    10.6974     0.4653    46.2216 </r>
       <r>    10.9468     0.4316    46.3293 </r>
       <r>    11.1962     0.5890    46.4762 </r>
       <r>    11.4456     0.6666    46.6425 </r>
       <r>    11.6950     0.8300    46.8495 </r>
       <r>    11.9445     0.7086    47.0262 </r>
       <r>    12.1939     0.7060    47.2023 </r>
       <r>    12.4433     0.8173    47.4061 </r>
       <r>    12.6927     0.9708    47.6483 </r>
       <r>    12.9421     1.0059    47.8991 </r>
       <r>    13.1915     2.2835    48.4687 </r>
       <r>    13.4409     1.8737    48.9360 </r>
       <r>    13.6903     0.9706    49.1780 </r>
       <r>    13.9397     0.8443    49.3886 </r>
       <r>    14.1891     0.6392    49.5480 </r>
       <r>    14.4385     0.7151    49.7264 </r>
       <r>    14.6879     4.6677    50.8905 </r>
       <r>    14.9373     6.0871    52.4087 </r>
       <r>    15.1868     2.3751    53.0011 </r>
       <r>    15.4362     1.9075    53.4768 </r>
       <r>    15.6856     2.0559    53.9896 </r>
       <r>    15.9350     4.1452    55.0234 </r>
       <r>    16.1844     2.9216    55.7521 </r>
       <r>    16.4338     2.3531    56.3390 </r>
       <r>    16.6832     2.1431    56.8735 </r>
       <r>    16.9326     2.5355    57.5059 </r>
       <r>    17.1820     2.2561    58.0685 </r>
       <r>    17.4314     2.4310    58.6748 </r>
       <r>    17.6808     3.4385    59.5324 </r>
       <r>    17.9302     2.7609    60.2210 </r>
       <r>    18.1796     1.5592    60.6099 </r>
       <r>    18.4291     1.5792    61.0038 </r>
       <r>    18.6785     1.3480    61.3400 </r>
       <r>    18.9279     1.4939    61.7125 </r>
       <r>    19.1773     1.0508    61.9746 </r>
       <r>    19.4267     1.3212    62.3041 </r>
       <r>    19.6761     1.3037    62.6293 </r>
       <r>    19.9255     1.3742    62.9720 </r>
       <r>    20.1749     1.2494    63.2836 </r>
       <r>    20.4243     1.1204    63.5630 </r>
       <r>    20.6737     1.1852    63.8586 </r>
       <r>    20.9231     1.2880    64.1799 </r>
       <r>    21.1725     0.9069    64.4061 </r>
       <r>    21.4219     1.3978    64.7547 </r>
       <r>    21.6714     1.0263    65.0107 </r>
       <r>    21.9208     1.4738    65.3782 </r>
       <r>    22.1702     1.6713    65.7951 </r>
       <r>    22.4196     3.5649    66.6842 </r>
       <r>    22.6690     2.0795    67.2028 </r>
       <r>    22.9184     2.7168    67.8804 </r>
       <r>    23.1678     1.4618    68.2450 </r>
       <r>    23.4172     1.5611    68.6344 </r>
       <r>    23.6666     1.8806    69.1034 </r>
       <r>    23.9160     2.3528    69.6902 </r>
       <r>    24.1654     2.0184    70.1936 </r>
       <r>    24.4148     3.8313    71.1492 </r>
       <r>    24.6642     2.1516    71.6858 </r>
       <r>    24.9137     1.4841    72.0559 </r>
       <r>    25.1631     1.8825    72.5254 </r>
       <r>    25.4125     4.0244    73.5292 </r>
       <r>    25.6619     4.2958    74.6006 </r>
       <r>    25.9113     3.1852    75.3950 </r>
       <r>    26.1607     2.7129    76.0716 </r>
       <r>    26.4101     2.6805    76.7402 </r>
       <r>    26.6595    18.3856    81.3257 </r>
       <r>    26.9089    81.2145   101.5812 </r>
       <r>    27.1583     4.7685   102.7705 </r>
       <r>    27.4077     2.7562   103.4579 </r>
       <r>    27.6571     1.4429   103.8178 </r>
       <r>    27.9065     2.2718   104.3844 </r>
       <r>    28.1560     1.4650   104.7498 </r>
       <r>    28.4054     1.5351   105.1326 </r>
       <r>    28.6548     1.6676   105.5486 </r>
       <r>    28.9042     1.6658   105.9640 </r>
       <r>    29.1536     1.1246   106.2445 </r>
       <r>    29.4030     1.9683   106.7354 </r>
       <r>    29.6524     1.5079   107.1115 </r>
       <r>    29.9018     1.9886   107.6075 </r>
       <r>    30.1512     1.3406   107.9418 </r>
       <r>    30.4006     1.6214   108.3462 </r>
       <r>    30.6500     3.4453   109.2055 </r>
       <r>    30.8994     4.1765   110.2471 </r>
       <r>    31.1488     2.5225   110.8763 </r>
       <r>    31.3982     0.3506   110.9637 </r>
       <r>    31.6477     0.9652   111.2044 </r>
       <r>    31.8971     0.3323   111.2873 </r>
       <r>    32.1465     0.8354   111.4957 </r>
       <r>    32.3959     0.3271   111.5772 </r>
       <r>    32.6453     2.2564   112.1400 </r>
       <r>    32.8947     2.7833   112.8342 </r>
       <r>    33.1441     1.8551   113.2969 </r>
       <r>    33.3935     2.9383   114.0297 </r>
       <r>    33.6429     2.4726   114.6464 </r>
       <r>    33.8923     4.5535   115.7821 </r>
       <r>    34.1417     4.3862   116.8760 </r>
       <r>    34.3911     3.0343   117.6328 </r>
       <r>    34.6405     2.3830   118.2272 </r>
       <r>    34.8900     2.4754   118.8445 </r>
       <r>    35.1394     3.9399   119.8272 </r>
       <r>    35.3888     3.9935   120.8232 </r>
       <r>    35.6382     2.3056   121.3983 </r>
       <r>    35.8876     1.5819   121.7928 </r>
       <r>    36.1370     1.4484   122.1540 </r>
       <r>    36.3864     1.3063   122.4798 </r>
       <r>    36.6358     1.3435   122.8149 </r>
       <r>    36.8852     1.6134   123.2173 </r>
       <r>    37.1346     1.3585   123.5561 </r>
       <r>    37.3840     1.9757   124.0489 </r>
       <r>    37.6334     3.2446   124.8581 </r>
       <r>    37.8828     3.4809   125.7263 </r>
       <r>    38.1323     4.4966   126.8478 </r>
       <r>    38.3817     3.1347   127.6296 </r>
       <r>    38.6311     3.2550   128.4414 </r>
       <r>    38.8805     2.3473   129.0269 </r>
       <r>    39.1299     1.8815   129.4961 </r>
       <r>    39.3793     1.6955   129.9190 </r>
       <r>    39.6287     1.8459   130.3794 </r>
       <r>    39.8781     2.2147   130.9317 </r>
       <r>    40.1275     2.8800   131.6500 </r>
       <r>    40.3769     3.2401   132.4581 </r>
       <r>    40.6263     3.1713   133.2491 </r>
       <r>    40.8757     3.1071   134.0240 </r>
       <r>    41.1251     5.5538   135.4092 </r>
       <r>    41.3746     3.5399   136.2920 </r>
       <r>    41.6240     4.1537   137.3280 </r>
       <r>    41.8734     4.4197   138.4303 </r>
       <r>    42.1228     3.1159   139.2074 </r>
       <r>    42.3722     3.3007   140.0307 </r>
       <r>    42.6216     2.8856   140.7504 </r>
       <r>    42.8710     3.4013   141.5987 </r>
       <r>    43.1204     3.3508   142.4344 </r>
       <r>    43.3698     6.2734   143.9990 </r>
       <r>    43.6192     6.2117   145.5483 </r>
       <r>    43.8686     2.4213   146.1522 </r>
       <r>    44.1180     3.2097   146.9527 </r>
       <r>    44.3674     2.8664   147.6676 </r>
       <r>    44.6169     2.9197   148.3958 </r>
       <r>    44.8663     2.9344   149.1276 </r>
       <r>    45.1157     2.2568   149.6905 </r>
       <r>    45.3651     3.1149   150.4674 </r>
       <r>    45.6145     4.5677   151.6066 </r>
       <r>    45.8639     6.3510   153.1906 </r>
       <r>    46.1133     2.0914   153.7122 </r>
       <r>    46.3627     2.1672   154.2527 </r>
       <r>    46.6121     2.5091   154.8785 </r>
       <r>    46.8615     1.8716   155.3453 </r>
       <r>    47.1109     1.8369   155.8035 </r>
       <r>    47.3603     2.2622   156.3677 </r>
       <r>    47.6097     2.0067   156.8681 </r>
       <r>    47.8592     3.1883   157.6633 </r>
       <r>    48.1086     3.3492   158.4986 </r>
       <r>    48.3580     1.8736   158.9659 </r>
       <r>    48.6074     1.8488   159.4270 </r>
       <r>    48.8568     2.4065   160.0272 </r>
       <r>    49.1062     2.8950   160.7493 </r>
       <r>    49.3556     1.9805   161.2433 </r>
       <r>    49.6050     3.4632   162.1070 </r>
       <r>    49.8544     2.1275   162.6376 </r>
       <r>    50.1038     2.6246   163.2922 </r>
       <r>    50.3532     2.7491   163.9779 </r>
       <r>    50.6026     1.8735   164.4451 </r>
       <r>    50.8520     3.6583   165.3575 </r>
       <r>    51.1015     6.2374   166.9132 </r>
       <r>    51.3509     6.6348   168.5680 </r>
       <r>    51.6003     3.4235   169.4218 </r>
       <r>    51.8497     2.2264   169.9771 </r>
       <r>    52.0991     3.8681   170.9418 </r>
       <r>    52.3485     2.9765   171.6842 </r>
       <r>    52.5979     4.9572   172.9206 </r>
       <r>    52.8473     4.9990   174.1674 </r>
       <r>    53.0967     2.9562   174.9047 </r>
       <r>    53.3461     4.5118   176.0299 </r>
       <r>    53.5955     2.8092   176.7305 </r>
       <r>    53.8449     5.1745   178.0211 </r>
       <r>    54.0943     4.0732   179.0370 </r>
       <r>    54.3438     3.5727   179.9281 </r>
       <r>    54.5932     4.9922   181.1732 </r>
       <r>    54.8426     3.2973   181.9955 </r>
       <r>    55.0920     2.6743   182.6625 </r>
       <r>    55.3414     4.5913   183.8076 </r>
       <r>    55.5908     3.7173   184.7347 </r>
       <r>    55.8402     3.4493   185.5950 </r>
       <r>    56.0896     2.6710   186.2612 </r>
       <r>    56.3390     6.3210   187.8377 </r>
       <r>    56.5884     5.7282   189.2663 </r>
       <r>    56.8378     4.4307   190.3714 </r>
       <r>    57.0872     5.9961   191.8669 </r>
       <r>    57.3366     2.9309   192.5978 </r>
       <r>    57.5861     3.6778   193.5151 </r>
       <r>    57.8355    10.3139   196.0875 </r>
       <r>    58.0849     6.1198   197.6138 </r>
       <r>    58.3343     2.6281   198.2693 </r>
       <r>    58.5837     3.7888   199.2142 </r>
       <r>    58.8331     2.8179   199.9170 </r>
       <r>    59.0825     5.3238   201.2448 </r>
       <r>    59.3319     4.2780   202.3118 </r>
       <r>    59.5813     2.9866   203.0567 </r>
       <r>    59.8307     5.0487   204.3159 </r>
       <r>    60.0801     3.2519   205.1269 </r>
       <r>    60.3295     2.7516   205.8132 </r>
       <r>    60.5789     3.1403   206.5964 </r>
       <r>    60.8284     2.2778   207.1645 </r>
       <r>    61.0778     2.3837   207.7590 </r>
       <r>    61.3272     2.4846   208.3787 </r>
       <r>    61.5766     3.0389   209.1366 </r>
       <r>    61.8260     2.1457   209.6718 </r>
       <r>    62.0754     2.6166   210.3244 </r>
       <r>    62.3248     4.3862   211.4183 </r>
       <r>    62.5742     4.8271   212.6222 </r>
       <r>    62.8236     3.6483   213.5321 </r>
       <r>    63.0730     2.7492   214.2178 </r>
       <r>    63.3224     2.8157   214.9201 </r>
       <r>    63.5718     0.8375   215.1289 </r>
       <r>    63.8212     0.7179   215.3080 </r>
       <r>    64.0707     0.5275   215.4396 </r>
       <r>    64.3201     0.4831   215.5601 </r>
       <r>    64.5695     1.1334   215.8427 </r>
       <r>    64.8189     0.4027   215.9432 </r>
       <r>    65.0683     0.0674   215.9600 </r>
       <r>    65.3177     0.0001   215.9600 </r>
       <r>    65.5671     0.0364   215.9691 </r>
       <r>    65.8165     0.1229   215.9997 </r>
       <r>    66.0659     0.0011   216.0000 </r>
       <r>    66.3153     0.0000   216.0000 </r>
       <r>    66.5647     0.0000   216.0000 </r>
       <r>    66.8141     0.0000   216.0000 </r>
       <r>    67.0635     0.0000   216.0000 </r>
       <r>    67.3129     0.0000   216.0000 </r>
       <r>    67.5624     0.0000   216.0000 </r>
       <r>    67.8118     0.0000   216.0000 </r>
       <r>    68.0612     0.0000   216.0000 </r>
       <r>    68.3106     0.0000   216.0000 </r>
       <r>    68.5600     0.0000   216.0000 </r>
       <r>    68.8094     0.0000   216.0000 </r>
       <r>    69.0588     0.0000   216.0000 </r>
      </set>
     </set>
    </array>
   </total>
  </dos>
 </calculation>
 <structure name="finalpos" >
  <crystal>
   <varray name="basis" >
    <v>       3.95039186       0.00000202       0.00000028 </v>
    <v>       0.00000202       3.95039204       0.00000185 </v>
    <v>       0.00000028       0.00000185       3.95039072 </v>
   </varray>
   <i name="volume">     61.64820370 </i>
   <varray name="rec_basis" >
    <v>       0.25313944      -0.00000013      -0.00000002 </v>
    <v>      -0.00000013       0.25313943      -0.00000012 </v>
    <v>      -0.00000002      -0.00000012       0.25313952 </v>
   </varray>
  </crystal>
  <varray name="positions" >
   <v>       1.00000000       0.00000001       0.99999999 </v>
   <v>       1.00000000       0.49999999       0.50000001 </v>
   <v>       0.50000000       1.00000000       0.50000000 </v>
   <v>       0.50000000       0.50000000       0.00000000 </v>
  </varray>
  <varray name="velocities" >
   <v>       0.00000000       0.00000000       0.00000000 </v>
   <v>       0.00000000       0.00000000       0.00000000 </v>
   <v>       0.00000000       0.00000000       0.00000000 </v>
   <v>       0.00000000       0.00000000       0.00000000 </v>
  </varray>
 </structure>
</modeling>
